 # Bcc Mo oriented X=[100] Y=[010] Z=[001].
  
        8192  atoms
           4  atom types
 
      0.000000000000      51.200000000000  xlo xhi
      0.000000000000      51.200000000000  ylo yhi
      0.000000000000      51.200000000000  zlo zhi
 
 
 
Atoms # atomic

1 1 0.0 0.0 0.0
2 3 1.6 1.6 1.6
3 1 3.2 0.0 0.0
4 3 4.8 1.6 1.6
5 4 6.4 0.0 0.0
6 2 8.0 1.6 1.6
7 2 9.6 0.0 0.0
8 2 11.2 1.6 1.6
9 1 12.8 0.0 0.0
10 2 14.4 1.6 1.6
11 1 16.0 0.0 0.0
12 2 17.6 1.6 1.6
13 1 19.2 0.0 0.0
14 2 20.8 1.6 1.6
15 1 22.4 0.0 0.0
16 2 24.0 1.6 1.6
17 1 25.6 0.0 0.0
18 3 27.2 1.6 1.6
19 1 28.8 0.0 0.0
20 3 30.4 1.6 1.6
21 1 32.0 0.0 0.0
22 3 33.6 1.6 1.6
23 1 35.2 0.0 0.0
24 3 36.8 1.6 1.6
25 1 38.4 0.0 0.0
26 3 40.0 1.6 1.6
27 1 41.6 0.0 0.0
28 3 43.2 1.6 1.6
29 1 44.8 0.0 0.0
30 3 46.4 1.6 1.6
31 1 48.0 0.0 0.0
32 3 49.6 1.6 1.6
33 4 0.0 3.2 0.0
34 2 1.6 4.8 1.6
35 1 3.2 3.2 0.0
36 2 4.8 4.8 1.6
37 2 6.4 3.2 0.0
38 2 8.0 4.8 1.6
39 2 9.6 3.2 0.0
40 1 11.2 4.8 1.6
41 2 12.8 3.2 0.0
42 2 14.4 4.8 1.6
43 2 16.0 3.2 0.0
44 4 17.6 4.8 1.6
45 2 19.2 3.2 0.0
46 2 20.8 4.8 1.6
47 2 22.4 3.2 0.0
48 3 24.0 4.8 1.6
49 2 25.6 3.2 0.0
50 3 27.2 4.8 1.6
51 1 28.8 3.2 0.0
52 3 30.4 4.8 1.6
53 4 32.0 3.2 0.0
54 3 33.6 4.8 1.6
55 1 35.2 3.2 0.0
56 3 36.8 4.8 1.6
57 1 38.4 3.2 0.0
58 3 40.0 4.8 1.6
59 4 41.6 3.2 0.0
60 3 43.2 4.8 1.6
61 1 44.8 3.2 0.0
62 3 46.4 4.8 1.6
63 1 48.0 3.2 0.0
64 3 49.6 4.8 1.6
65 4 0.0 6.4 0.0
66 3 1.6 8.0 1.6
67 2 3.2 6.4 0.0
68 2 4.8 8.0 1.6
69 4 6.4 6.4 0.0
70 2 8.0 8.0 1.6
71 2 9.6 6.4 0.0
72 1 11.2 8.0 1.6
73 2 12.8 6.4 0.0
74 1 14.4 8.0 1.6
75 2 16.0 6.4 0.0
76 2 17.6 8.0 1.6
77 2 19.2 6.4 0.0
78 4 20.8 8.0 1.6
79 2 22.4 6.4 0.0
80 2 24.0 8.0 1.6
81 2 25.6 6.4 0.0
82 2 27.2 8.0 1.6
83 4 28.8 6.4 0.0
84 2 30.4 8.0 1.6
85 2 32.0 6.4 0.0
86 2 33.6 8.0 1.6
87 1 35.2 6.4 0.0
88 3 36.8 8.0 1.6
89 1 38.4 6.4 0.0
90 2 40.0 8.0 1.6
91 1 41.6 6.4 0.0
92 2 43.2 8.0 1.6
93 1 44.8 6.4 0.0
94 3 46.4 8.0 1.6
95 1 48.0 6.4 0.0
96 3 49.6 8.0 1.6
97 3 0.0 9.6 0.0
98 3 1.6 11.2 1.6
99 4 3.2 9.6 0.0
100 2 4.8 11.2 1.6
101 1 6.4 9.6 0.0
102 2 8.0 11.2 1.6
103 2 9.6 9.6 0.0
104 2 11.2 11.2 1.6
105 2 12.8 9.6 0.0
106 2 14.4 11.2 1.6
107 2 16.0 9.6 0.0
108 4 17.6 11.2 1.6
109 2 19.2 9.6 0.0
110 1 20.8 11.2 1.6
111 2 22.4 9.6 0.0
112 2 24.0 11.2 1.6
113 2 25.6 9.6 0.0
114 2 27.2 11.2 1.6
115 2 28.8 9.6 0.0
116 4 30.4 11.2 1.6
117 2 32.0 9.6 0.0
118 4 33.6 11.2 1.6
119 2 35.2 9.6 0.0
120 4 36.8 11.2 1.6
121 2 38.4 9.6 0.0
122 2 40.0 11.2 1.6
123 1 41.6 9.6 0.0
124 2 43.2 11.2 1.6
125 1 44.8 9.6 0.0
126 3 46.4 11.2 1.6
127 1 48.0 9.6 0.0
128 3 49.6 11.2 1.6
129 4 0.0 12.8 0.0
130 2 1.6 14.4 1.6
131 1 3.2 12.8 0.0
132 2 4.8 14.4 1.6
133 2 6.4 12.8 0.0
134 2 8.0 14.4 1.6
135 2 9.6 12.8 0.0
136 2 11.2 14.4 1.6
137 1 12.8 12.8 0.0
138 2 14.4 14.4 1.6
139 4 16.0 12.8 0.0
140 2 17.6 14.4 1.6
141 2 19.2 12.8 0.0
142 1 20.8 14.4 1.6
143 2 22.4 12.8 0.0
144 4 24.0 14.4 1.6
145 2 25.6 12.8 0.0
146 1 27.2 14.4 1.6
147 4 28.8 12.8 0.0
148 2 30.4 14.4 1.6
149 2 32.0 12.8 0.0
150 2 33.6 14.4 1.6
151 3 35.2 12.8 0.0
152 1 36.8 14.4 1.6
153 3 38.4 12.8 0.0
154 1 40.0 14.4 1.6
155 3 41.6 12.8 0.0
156 1 43.2 14.4 1.6
157 2 44.8 12.8 0.0
158 2 46.4 14.4 1.6
159 2 48.0 12.8 0.0
160 3 49.6 14.4 1.6
161 2 0.0 16.0 0.0
162 2 1.6 17.6 1.6
163 2 3.2 16.0 0.0
164 4 4.8 17.6 1.6
165 2 6.4 16.0 0.0
166 4 8.0 17.6 1.6
167 4 9.6 16.0 0.0
168 2 11.2 17.6 1.6
169 2 12.8 16.0 0.0
170 1 14.4 17.6 1.6
171 2 16.0 16.0 0.0
172 1 17.6 17.6 1.6
173 2 19.2 16.0 0.0
174 2 20.8 17.6 1.6
175 2 22.4 16.0 0.0
176 4 24.0 17.6 1.6
177 2 25.6 16.0 0.0
178 2 27.2 17.6 1.6
179 2 28.8 16.0 0.0
180 2 30.4 17.6 1.6
181 2 32.0 16.0 0.0
182 1 33.6 17.6 1.6
183 3 35.2 16.0 0.0
184 1 36.8 17.6 1.6
185 3 38.4 16.0 0.0
186 1 40.0 17.6 1.6
187 3 41.6 16.0 0.0
188 1 43.2 17.6 1.6
189 3 44.8 16.0 0.0
190 1 46.4 17.6 1.6
191 3 48.0 16.0 0.0
192 1 49.6 17.6 1.6
193 2 0.0 19.2 0.0
194 4 1.6 20.8 1.6
195 2 3.2 19.2 0.0
196 2 4.8 20.8 1.6
197 2 6.4 19.2 0.0
198 2 8.0 20.8 1.6
199 2 9.6 19.2 0.0
200 2 11.2 20.8 1.6
201 2 12.8 19.2 0.0
202 2 14.4 20.8 1.6
203 2 16.0 19.2 0.0
204 4 17.6 20.8 1.6
205 3 19.2 19.2 0.0
206 2 20.8 20.8 1.6
207 2 22.4 19.2 0.0
208 2 24.0 20.8 1.6
209 2 25.6 19.2 0.0
210 2 27.2 20.8 1.6
211 2 28.8 19.2 0.0
212 4 30.4 20.8 1.6
213 2 32.0 19.2 0.0
214 1 33.6 20.8 1.6
215 3 35.2 19.2 0.0
216 2 36.8 20.8 1.6
217 3 38.4 19.2 0.0
218 1 40.0 20.8 1.6
219 3 41.6 19.2 0.0
220 4 43.2 20.8 1.6
221 3 44.8 19.2 0.0
222 1 46.4 20.8 1.6
223 3 48.0 19.2 0.0
224 1 49.6 20.8 1.6
225 3 0.0 22.4 0.0
226 2 1.6 24.0 1.6
227 2 3.2 22.4 0.0
228 2 4.8 24.0 1.6
229 1 6.4 22.4 0.0
230 2 8.0 24.0 1.6
231 2 9.6 22.4 0.0
232 1 11.2 24.0 1.6
233 2 12.8 22.4 0.0
234 1 14.4 24.0 1.6
235 2 16.0 22.4 0.0
236 1 17.6 24.0 1.6
237 2 19.2 22.4 0.0
238 2 20.8 24.0 1.6
239 2 22.4 22.4 0.0
240 1 24.0 24.0 1.6
241 2 25.6 22.4 0.0
242 2 27.2 24.0 1.6
243 4 28.8 22.4 0.0
244 2 30.4 24.0 1.6
245 2 32.0 22.4 0.0
246 1 33.6 24.0 1.6
247 3 35.2 22.4 0.0
248 1 36.8 24.0 1.6
249 3 38.4 22.4 0.0
250 1 40.0 24.0 1.6
251 3 41.6 22.4 0.0
252 1 43.2 24.0 1.6
253 3 44.8 22.4 0.0
254 1 46.4 24.0 1.6
255 3 48.0 22.4 0.0
256 1 49.6 24.0 1.6
257 3 0.0 25.6 0.0
258 2 1.6 27.2 1.6
259 4 3.2 25.6 0.0
260 2 4.8 27.2 1.6
261 1 6.4 25.6 0.0
262 3 8.0 27.2 1.6
263 2 9.6 25.6 0.0
264 2 11.2 27.2 1.6
265 2 12.8 25.6 0.0
266 2 14.4 27.2 1.6
267 2 16.0 25.6 0.0
268 4 17.6 27.2 1.6
269 2 19.2 25.6 0.0
270 2 20.8 27.2 1.6
271 2 22.4 25.6 0.0
272 1 24.0 27.2 1.6
273 2 25.6 25.6 0.0
274 2 27.2 27.2 1.6
275 1 28.8 25.6 0.0
276 2 30.4 27.2 1.6
277 2 32.0 25.6 0.0
278 4 33.6 27.2 1.6
279 2 35.2 25.6 0.0
280 2 36.8 27.2 1.6
281 2 38.4 25.6 0.0
282 2 40.0 27.2 1.6
283 3 41.6 25.6 0.0
284 1 43.2 27.2 1.6
285 3 44.8 25.6 0.0
286 2 46.4 27.2 1.6
287 2 48.0 25.6 0.0
288 2 49.6 27.2 1.6
289 3 0.0 28.8 0.0
290 2 1.6 30.4 1.6
291 2 3.2 28.8 0.0
292 3 4.8 30.4 1.6
293 1 6.4 28.8 0.0
294 2 8.0 30.4 1.6
295 2 9.6 28.8 0.0
296 2 11.2 30.4 1.6
297 1 12.8 28.8 0.0
298 2 14.4 30.4 1.6
299 2 16.0 28.8 0.0
300 2 17.6 30.4 1.6
301 2 19.2 28.8 0.0
302 2 20.8 30.4 1.6
303 2 22.4 28.8 0.0
304 2 24.0 30.4 1.6
305 2 25.6 28.8 0.0
306 1 27.2 30.4 1.6
307 3 28.8 28.8 0.0
308 1 30.4 30.4 1.6
309 3 32.0 28.8 0.0
310 4 33.6 30.4 1.6
311 2 35.2 28.8 0.0
312 3 36.8 30.4 1.6
313 1 38.4 28.8 0.0
314 2 40.0 30.4 1.6
315 2 41.6 28.8 0.0
316 2 43.2 30.4 1.6
317 2 44.8 28.8 0.0
318 2 46.4 30.4 1.6
319 3 48.0 28.8 0.0
320 4 49.6 30.4 1.6
321 3 0.0 32.0 0.0
322 2 1.6 33.6 1.6
323 2 3.2 32.0 0.0
324 3 4.8 33.6 1.6
325 2 6.4 32.0 0.0
326 2 8.0 33.6 1.6
327 2 9.6 32.0 0.0
328 2 11.2 33.6 1.6
329 2 12.8 32.0 0.0
330 1 14.4 33.6 1.6
331 2 16.0 32.0 0.0
332 1 17.6 33.6 1.6
333 2 19.2 32.0 0.0
334 2 20.8 33.6 1.6
335 1 22.4 32.0 0.0
336 2 24.0 33.6 1.6
337 2 25.6 32.0 0.0
338 1 27.2 33.6 1.6
339 3 28.8 32.0 0.0
340 4 30.4 33.6 1.6
341 2 32.0 32.0 0.0
342 2 33.6 33.6 1.6
343 2 35.2 32.0 0.0
344 2 36.8 33.6 1.6
345 1 38.4 32.0 0.0
346 2 40.0 33.6 1.6
347 2 41.6 32.0 0.0
348 2 43.2 33.6 1.6
349 2 44.8 32.0 0.0
350 2 46.4 33.6 1.6
351 2 48.0 32.0 0.0
352 2 49.6 33.6 1.6
353 2 0.0 35.2 0.0
354 3 1.6 36.8 1.6
355 1 3.2 35.2 0.0
356 3 4.8 36.8 1.6
357 4 6.4 35.2 0.0
358 3 8.0 36.8 1.6
359 2 9.6 35.2 0.0
360 1 11.2 36.8 1.6
361 2 12.8 35.2 0.0
362 2 14.4 36.8 1.6
363 2 16.0 35.2 0.0
364 2 17.6 36.8 1.6
365 2 19.2 35.2 0.0
366 2 20.8 36.8 1.6
367 1 22.4 35.2 0.0
368 2 24.0 36.8 1.6
369 2 25.6 35.2 0.0
370 2 27.2 36.8 1.6
371 2 28.8 35.2 0.0
372 2 30.4 36.8 1.6
373 2 32.0 35.2 0.0
374 2 33.6 36.8 1.6
375 2 35.2 35.2 0.0
376 2 36.8 36.8 1.6
377 2 38.4 35.2 0.0
378 2 40.0 36.8 1.6
379 2 41.6 35.2 0.0
380 3 43.2 36.8 1.6
381 4 44.8 35.2 0.0
382 3 46.4 36.8 1.6
383 1 48.0 35.2 0.0
384 3 49.6 36.8 1.6
385 1 0.0 38.4 0.0
386 3 1.6 40.0 1.6
387 1 3.2 38.4 0.0
388 3 4.8 40.0 1.6
389 1 6.4 38.4 0.0
390 3 8.0 40.0 1.6
391 3 9.6 38.4 0.0
392 2 11.2 40.0 1.6
393 2 12.8 38.4 0.0
394 4 14.4 40.0 1.6
395 4 16.0 38.4 0.0
396 2 17.6 40.0 1.6
397 2 19.2 38.4 0.0
398 2 20.8 40.0 1.6
399 2 22.4 38.4 0.0
400 2 24.0 40.0 1.6
401 4 25.6 38.4 0.0
402 2 27.2 40.0 1.6
403 1 28.8 38.4 0.0
404 2 30.4 40.0 1.6
405 2 32.0 38.4 0.0
406 2 33.6 40.0 1.6
407 2 35.2 38.4 0.0
408 2 36.8 40.0 1.6
409 1 38.4 38.4 0.0
410 3 40.0 40.0 1.6
411 1 41.6 38.4 0.0
412 3 43.2 40.0 1.6
413 1 44.8 38.4 0.0
414 3 46.4 40.0 1.6
415 1 48.0 38.4 0.0
416 3 49.6 40.0 1.6
417 1 0.0 41.6 0.0
418 3 1.6 43.2 1.6
419 1 3.2 41.6 0.0
420 3 4.8 43.2 1.6
421 1 6.4 41.6 0.0
422 2 8.0 43.2 1.6
423 1 9.6 41.6 0.0
424 3 11.2 43.2 1.6
425 2 12.8 41.6 0.0
426 2 14.4 43.2 1.6
427 3 16.0 41.6 0.0
428 2 17.6 43.2 1.6
429 2 19.2 41.6 0.0
430 2 20.8 43.2 1.6
431 1 22.4 41.6 0.0
432 2 24.0 43.2 1.6
433 2 25.6 41.6 0.0
434 2 27.2 43.2 1.6
435 2 28.8 41.6 0.0
436 2 30.4 43.2 1.6
437 1 32.0 41.6 0.0
438 2 33.6 43.2 1.6
439 4 35.2 41.6 0.0
440 3 36.8 43.2 1.6
441 1 38.4 41.6 0.0
442 3 40.0 43.2 1.6
443 4 41.6 41.6 0.0
444 3 43.2 43.2 1.6
445 1 44.8 41.6 0.0
446 3 46.4 43.2 1.6
447 1 48.0 41.6 0.0
448 3 49.6 43.2 1.6
449 2 0.0 44.8 0.0
450 3 1.6 46.4 1.6
451 1 3.2 44.8 0.0
452 3 4.8 46.4 1.6
453 2 6.4 44.8 0.0
454 2 8.0 46.4 1.6
455 1 9.6 44.8 0.0
456 3 11.2 46.4 1.6
457 1 12.8 44.8 0.0
458 2 14.4 46.4 1.6
459 2 16.0 44.8 0.0
460 1 17.6 46.4 1.6
461 2 19.2 44.8 0.0
462 1 20.8 46.4 1.6
463 2 22.4 44.8 0.0
464 1 24.0 46.4 1.6
465 2 25.6 44.8 0.0
466 4 27.2 46.4 1.6
467 2 28.8 44.8 0.0
468 2 30.4 46.4 1.6
469 1 32.0 44.8 0.0
470 2 33.6 46.4 1.6
471 2 35.2 44.8 0.0
472 2 36.8 46.4 1.6
473 1 38.4 44.8 0.0
474 2 40.0 46.4 1.6
475 1 41.6 44.8 0.0
476 3 43.2 46.4 1.6
477 1 44.8 44.8 0.0
478 3 46.4 46.4 1.6
479 1 48.0 44.8 0.0
480 3 49.6 46.4 1.6
481 1 0.0 48.0 0.0
482 3 1.6 49.6 1.6
483 1 3.2 48.0 0.0
484 3 4.8 49.6 1.6
485 4 6.4 48.0 0.0
486 2 8.0 49.6 1.6
487 2 9.6 48.0 0.0
488 2 11.2 49.6 1.6
489 1 12.8 48.0 0.0
490 3 14.4 49.6 1.6
491 2 16.0 48.0 0.0
492 2 17.6 49.6 1.6
493 2 19.2 48.0 0.0
494 3 20.8 49.6 1.6
495 2 22.4 48.0 0.0
496 2 24.0 49.6 1.6
497 2 25.6 48.0 0.0
498 3 27.2 49.6 1.6
499 2 28.8 48.0 0.0
500 3 30.4 49.6 1.6
501 1 32.0 48.0 0.0
502 3 33.6 49.6 1.6
503 1 35.2 48.0 0.0
504 3 36.8 49.6 1.6
505 1 38.4 48.0 0.0
506 3 40.0 49.6 1.6
507 1 41.6 48.0 0.0
508 3 43.2 49.6 1.6
509 1 44.8 48.0 0.0
510 3 46.4 49.6 1.6
511 1 48.0 48.0 0.0
512 3 49.6 49.6 1.6
513 4 0.0 0.0 3.2
514 3 1.6 1.6 4.8
515 1 3.2 0.0 3.2
516 3 4.8 1.6 4.8
517 1 6.4 0.0 3.2
518 2 8.0 1.6 4.8
519 2 9.6 0.0 3.2
520 2 11.2 1.6 4.8
521 2 12.8 0.0 3.2
522 2 14.4 1.6 4.8
523 1 16.0 0.0 3.2
524 2 17.6 1.6 4.8
525 4 19.2 0.0 3.2
526 3 20.8 1.6 4.8
527 1 22.4 0.0 3.2
528 3 24.0 1.6 4.8
529 1 25.6 0.0 3.2
530 3 27.2 1.6 4.8
531 1 28.8 0.0 3.2
532 3 30.4 1.6 4.8
533 1 32.0 0.0 3.2
534 3 33.6 1.6 4.8
535 1 35.2 0.0 3.2
536 3 36.8 1.6 4.8
537 4 38.4 0.0 3.2
538 3 40.0 1.6 4.8
539 1 41.6 0.0 3.2
540 3 43.2 1.6 4.8
541 1 44.8 0.0 3.2
542 3 46.4 1.6 4.8
543 1 48.0 0.0 3.2
544 3 49.6 1.6 4.8
545 1 0.0 3.2 3.2
546 3 1.6 4.8 4.8
547 2 3.2 3.2 3.2
548 2 4.8 4.8 4.8
549 2 6.4 3.2 3.2
550 2 8.0 4.8 4.8
551 2 9.6 3.2 3.2
552 2 11.2 4.8 4.8
553 4 12.8 3.2 3.2
554 2 14.4 4.8 4.8
555 2 16.0 3.2 3.2
556 2 17.6 4.8 4.8
557 2 19.2 3.2 3.2
558 4 20.8 4.8 4.8
559 4 22.4 3.2 3.2
560 3 24.0 4.8 4.8
561 4 25.6 3.2 3.2
562 3 27.2 4.8 4.8
563 1 28.8 3.2 3.2
564 3 30.4 4.8 4.8
565 1 32.0 3.2 3.2
566 3 33.6 4.8 4.8
567 1 35.2 3.2 3.2
568 3 36.8 4.8 4.8
569 1 38.4 3.2 3.2
570 3 40.0 4.8 4.8
571 4 41.6 3.2 3.2
572 3 43.2 4.8 4.8
573 1 44.8 3.2 3.2
574 3 46.4 4.8 4.8
575 1 48.0 3.2 3.2
576 3 49.6 4.8 4.8
577 1 0.0 6.4 3.2
578 2 1.6 8.0 4.8
579 1 3.2 6.4 3.2
580 2 4.8 8.0 4.8
581 2 6.4 6.4 3.2
582 2 8.0 8.0 4.8
583 2 9.6 6.4 3.2
584 2 11.2 8.0 4.8
585 2 12.8 6.4 3.2
586 2 14.4 8.0 4.8
587 2 16.0 6.4 3.2
588 2 17.6 8.0 4.8
589 2 19.2 6.4 3.2
590 2 20.8 8.0 4.8
591 2 22.4 6.4 3.2
592 2 24.0 8.0 4.8
593 1 25.6 6.4 3.2
594 2 27.2 8.0 4.8
595 4 28.8 6.4 3.2
596 2 30.4 8.0 4.8
597 4 32.0 6.4 3.2
598 3 33.6 8.0 4.8
599 1 35.2 6.4 3.2
600 3 36.8 8.0 4.8
601 4 38.4 6.4 3.2
602 2 40.0 8.0 4.8
603 1 41.6 6.4 3.2
604 4 43.2 8.0 4.8
605 4 44.8 6.4 3.2
606 3 46.4 8.0 4.8
607 1 48.0 6.4 3.2
608 3 49.6 8.0 4.8
609 3 0.0 9.6 3.2
610 2 1.6 11.2 4.8
611 2 3.2 9.6 3.2
612 2 4.8 11.2 4.8
613 2 6.4 9.6 3.2
614 2 8.0 11.2 4.8
615 2 9.6 9.6 3.2
616 2 11.2 11.2 4.8
617 2 12.8 9.6 3.2
618 2 14.4 11.2 4.8
619 2 16.0 9.6 3.2
620 2 17.6 11.2 4.8
621 2 19.2 9.6 3.2
622 4 20.8 11.2 4.8
623 2 22.4 9.6 3.2
624 2 24.0 11.2 4.8
625 1 25.6 9.6 3.2
626 3 27.2 11.2 4.8
627 2 28.8 9.6 3.2
628 2 30.4 11.2 4.8
629 2 32.0 9.6 3.2
630 2 33.6 11.2 4.8
631 2 35.2 9.6 3.2
632 2 36.8 11.2 4.8
633 2 38.4 9.6 3.2
634 2 40.0 11.2 4.8
635 2 41.6 9.6 3.2
636 2 43.2 11.2 4.8
637 1 44.8 9.6 3.2
638 3 46.4 11.2 4.8
639 1 48.0 9.6 3.2
640 2 49.6 11.2 4.8
641 1 0.0 12.8 3.2
642 2 1.6 14.4 4.8
643 4 3.2 12.8 3.2
644 2 4.8 14.4 4.8
645 2 6.4 12.8 3.2
646 1 8.0 14.4 4.8
647 1 9.6 12.8 3.2
648 2 11.2 14.4 4.8
649 2 12.8 12.8 3.2
650 2 14.4 14.4 4.8
651 2 16.0 12.8 3.2
652 2 17.6 14.4 4.8
653 2 19.2 12.8 3.2
654 1 20.8 14.4 4.8
655 3 22.4 12.8 3.2
656 1 24.0 14.4 4.8
657 2 25.6 12.8 3.2
658 1 27.2 14.4 4.8
659 3 28.8 12.8 3.2
660 2 30.4 14.4 4.8
661 2 32.0 12.8 3.2
662 3 33.6 14.4 4.8
663 2 35.2 12.8 3.2
664 1 36.8 14.4 4.8
665 2 38.4 12.8 3.2
666 1 40.0 14.4 4.8
667 2 41.6 12.8 3.2
668 4 43.2 14.4 4.8
669 2 44.8 12.8 3.2
670 2 46.4 14.4 4.8
671 1 48.0 12.8 3.2
672 4 49.6 14.4 4.8
673 3 0.0 16.0 3.2
674 4 1.6 17.6 4.8
675 2 3.2 16.0 3.2
676 4 4.8 17.6 4.8
677 3 6.4 16.0 3.2
678 2 8.0 17.6 4.8
679 3 9.6 16.0 3.2
680 1 11.2 17.6 4.8
681 2 12.8 16.0 3.2
682 1 14.4 17.6 4.8
683 2 16.0 16.0 3.2
684 2 17.6 17.6 4.8
685 2 19.2 16.0 3.2
686 2 20.8 17.6 4.8
687 3 22.4 16.0 3.2
688 1 24.0 17.6 4.8
689 2 25.6 16.0 3.2
690 1 27.2 17.6 4.8
691 3 28.8 16.0 3.2
692 2 30.4 17.6 4.8
693 2 32.0 16.0 3.2
694 1 33.6 17.6 4.8
695 3 35.2 16.0 3.2
696 1 36.8 17.6 4.8
697 3 38.4 16.0 3.2
698 1 40.0 17.6 4.8
699 3 41.6 16.0 3.2
700 1 43.2 17.6 4.8
701 3 44.8 16.0 3.2
702 4 46.4 17.6 4.8
703 2 48.0 16.0 3.2
704 2 49.6 17.6 4.8
705 2 0.0 19.2 3.2
706 2 1.6 20.8 4.8
707 2 3.2 19.2 3.2
708 2 4.8 20.8 4.8
709 2 6.4 19.2 3.2
710 2 8.0 20.8 4.8
711 2 9.6 19.2 3.2
712 2 11.2 20.8 4.8
713 2 12.8 19.2 3.2
714 2 14.4 20.8 4.8
715 2 16.0 19.2 3.2
716 2 17.6 20.8 4.8
717 2 19.2 19.2 3.2
718 2 20.8 20.8 4.8
719 3 22.4 19.2 3.2
720 1 24.0 20.8 4.8
721 2 25.6 19.2 3.2
722 1 27.2 20.8 4.8
723 2 28.8 19.2 3.2
724 1 30.4 20.8 4.8
725 3 32.0 19.2 3.2
726 1 33.6 20.8 4.8
727 3 35.2 19.2 3.2
728 1 36.8 20.8 4.8
729 3 38.4 19.2 3.2
730 1 40.0 20.8 4.8
731 3 41.6 19.2 3.2
732 1 43.2 20.8 4.8
733 3 44.8 19.2 3.2
734 1 46.4 20.8 4.8
735 2 48.0 19.2 3.2
736 2 49.6 20.8 4.8
737 3 0.0 22.4 3.2
738 2 1.6 24.0 4.8
739 4 3.2 22.4 3.2
740 2 4.8 24.0 4.8
741 2 6.4 22.4 3.2
742 4 8.0 24.0 4.8
743 2 9.6 22.4 3.2
744 2 11.2 24.0 4.8
745 2 12.8 22.4 3.2
746 4 14.4 24.0 4.8
747 2 16.0 22.4 3.2
748 2 17.6 24.0 4.8
749 2 19.2 22.4 3.2
750 2 20.8 24.0 4.8
751 4 22.4 22.4 3.2
752 1 24.0 24.0 4.8
753 3 25.6 22.4 3.2
754 4 27.2 24.0 4.8
755 2 28.8 22.4 3.2
756 1 30.4 24.0 4.8
757 2 32.0 22.4 3.2
758 1 33.6 24.0 4.8
759 3 35.2 22.4 3.2
760 4 36.8 24.0 4.8
761 3 38.4 22.4 3.2
762 1 40.0 24.0 4.8
763 3 41.6 22.4 3.2
764 1 43.2 24.0 4.8
765 3 44.8 22.4 3.2
766 2 46.4 24.0 4.8
767 3 48.0 22.4 3.2
768 4 49.6 24.0 4.8
769 2 0.0 25.6 3.2
770 2 1.6 27.2 4.8
771 4 3.2 25.6 3.2
772 2 4.8 27.2 4.8
773 2 6.4 25.6 3.2
774 2 8.0 27.2 4.8
775 2 9.6 25.6 3.2
776 2 11.2 27.2 4.8
777 3 12.8 25.6 3.2
778 2 14.4 27.2 4.8
779 2 16.0 25.6 3.2
780 2 17.6 27.2 4.8
781 2 19.2 25.6 3.2
782 4 20.8 27.2 4.8
783 2 22.4 25.6 3.2
784 1 24.0 27.2 4.8
785 3 25.6 25.6 3.2
786 4 27.2 27.2 4.8
787 2 28.8 25.6 3.2
788 4 30.4 27.2 4.8
789 2 32.0 25.6 3.2
790 2 33.6 27.2 4.8
791 2 35.2 25.6 3.2
792 2 36.8 27.2 4.8
793 3 38.4 25.6 3.2
794 2 40.0 27.2 4.8
795 2 41.6 25.6 3.2
796 2 43.2 27.2 4.8
797 2 44.8 25.6 3.2
798 2 46.4 27.2 4.8
799 2 48.0 25.6 3.2
800 4 49.6 27.2 4.8
801 2 0.0 28.8 3.2
802 2 1.6 30.4 4.8
803 1 3.2 28.8 3.2
804 3 4.8 30.4 4.8
805 1 6.4 28.8 3.2
806 3 8.0 30.4 4.8
807 4 9.6 28.8 3.2
808 3 11.2 30.4 4.8
809 1 12.8 28.8 3.2
810 2 14.4 30.4 4.8
811 2 16.0 28.8 3.2
812 4 17.6 30.4 4.8
813 2 19.2 28.8 3.2
814 2 20.8 30.4 4.8
815 3 22.4 28.8 3.2
816 2 24.0 30.4 4.8
817 2 25.6 28.8 3.2
818 2 27.2 30.4 4.8
819 3 28.8 28.8 3.2
820 1 30.4 30.4 4.8
821 3 32.0 28.8 3.2
822 4 33.6 30.4 4.8
823 2 35.2 28.8 3.2
824 2 36.8 30.4 4.8
825 4 38.4 28.8 3.2
826 3 40.0 30.4 4.8
827 2 41.6 28.8 3.2
828 2 43.2 30.4 4.8
829 2 44.8 28.8 3.2
830 2 46.4 30.4 4.8
831 4 48.0 28.8 3.2
832 2 49.6 30.4 4.8
833 2 0.0 32.0 3.2
834 3 1.6 33.6 4.8
835 1 3.2 32.0 3.2
836 3 4.8 33.6 4.8
837 1 6.4 32.0 3.2
838 2 8.0 33.6 4.8
839 2 9.6 32.0 3.2
840 2 11.2 33.6 4.8
841 2 12.8 32.0 3.2
842 2 14.4 33.6 4.8
843 2 16.0 32.0 3.2
844 2 17.6 33.6 4.8
845 2 19.2 32.0 3.2
846 4 20.8 33.6 4.8
847 2 22.4 32.0 3.2
848 1 24.0 33.6 4.8
849 2 25.6 32.0 3.2
850 1 27.2 33.6 4.8
851 3 28.8 32.0 3.2
852 1 30.4 33.6 4.8
853 3 32.0 32.0 3.2
854 1 33.6 33.6 4.8
855 2 35.2 32.0 3.2
856 4 36.8 33.6 4.8
857 2 38.4 32.0 3.2
858 2 40.0 33.6 4.8
859 1 41.6 32.0 3.2
860 2 43.2 33.6 4.8
861 2 44.8 32.0 3.2
862 2 46.4 33.6 4.8
863 2 48.0 32.0 3.2
864 2 49.6 33.6 4.8
865 2 0.0 35.2 3.2
866 3 1.6 36.8 4.8
867 1 3.2 35.2 3.2
868 3 4.8 36.8 4.8
869 1 6.4 35.2 3.2
870 3 8.0 36.8 4.8
871 1 9.6 35.2 3.2
872 2 11.2 36.8 4.8
873 2 12.8 35.2 3.2
874 2 14.4 36.8 4.8
875 2 16.0 35.2 3.2
876 1 17.6 36.8 4.8
877 2 19.2 35.2 3.2
878 2 20.8 36.8 4.8
879 2 22.4 35.2 3.2
880 2 24.0 36.8 4.8
881 3 25.6 35.2 3.2
882 1 27.2 36.8 4.8
883 3 28.8 35.2 3.2
884 4 30.4 36.8 4.8
885 3 32.0 35.2 3.2
886 1 33.6 36.8 4.8
887 2 35.2 35.2 3.2
888 1 36.8 36.8 4.8
889 2 38.4 35.2 3.2
890 2 40.0 36.8 4.8
891 1 41.6 35.2 3.2
892 3 43.2 36.8 4.8
893 1 44.8 35.2 3.2
894 3 46.4 36.8 4.8
895 1 48.0 35.2 3.2
896 3 49.6 36.8 4.8
897 1 0.0 38.4 3.2
898 3 1.6 40.0 4.8
899 1 3.2 38.4 3.2
900 3 4.8 40.0 4.8
901 1 6.4 38.4 3.2
902 2 8.0 40.0 4.8
903 4 9.6 38.4 3.2
904 2 11.2 40.0 4.8
905 2 12.8 38.4 3.2
906 2 14.4 40.0 4.8
907 4 16.0 38.4 3.2
908 4 17.6 40.0 4.8
909 2 19.2 38.4 3.2
910 2 20.8 40.0 4.8
911 4 22.4 38.4 3.2
912 3 24.0 40.0 4.8
913 2 25.6 38.4 3.2
914 1 27.2 40.0 4.8
915 2 28.8 38.4 3.2
916 2 30.4 40.0 4.8
917 3 32.0 38.4 3.2
918 4 33.6 40.0 4.8
919 2 35.2 38.4 3.2
920 2 36.8 40.0 4.8
921 2 38.4 38.4 3.2
922 2 40.0 40.0 4.8
923 1 41.6 38.4 3.2
924 3 43.2 40.0 4.8
925 1 44.8 38.4 3.2
926 3 46.4 40.0 4.8
927 1 48.0 38.4 3.2
928 3 49.6 40.0 4.8
929 1 0.0 41.6 3.2
930 3 1.6 43.2 4.8
931 1 3.2 41.6 3.2
932 3 4.8 43.2 4.8
933 1 6.4 41.6 3.2
934 2 8.0 43.2 4.8
935 2 9.6 41.6 3.2
936 2 11.2 43.2 4.8
937 2 12.8 41.6 3.2
938 1 14.4 43.2 4.8
939 2 16.0 41.6 3.2
940 4 17.6 43.2 4.8
941 2 19.2 41.6 3.2
942 2 20.8 43.2 4.8
943 2 22.4 41.6 3.2
944 2 24.0 43.2 4.8
945 4 25.6 41.6 3.2
946 2 27.2 43.2 4.8
947 2 28.8 41.6 3.2
948 2 30.4 43.2 4.8
949 4 32.0 41.6 3.2
950 2 33.6 43.2 4.8
951 2 35.2 41.6 3.2
952 2 36.8 43.2 4.8
953 2 38.4 41.6 3.2
954 2 40.0 43.2 4.8
955 1 41.6 41.6 3.2
956 2 43.2 43.2 4.8
957 1 44.8 41.6 3.2
958 3 46.4 43.2 4.8
959 1 48.0 41.6 3.2
960 3 49.6 43.2 4.8
961 1 0.0 44.8 3.2
962 3 1.6 46.4 4.8
963 1 3.2 44.8 3.2
964 3 4.8 46.4 4.8
965 4 6.4 44.8 3.2
966 2 8.0 46.4 4.8
967 2 9.6 44.8 3.2
968 2 11.2 46.4 4.8
969 2 12.8 44.8 3.2
970 3 14.4 46.4 4.8
971 2 16.0 44.8 3.2
972 2 17.6 46.4 4.8
973 2 19.2 44.8 3.2
974 2 20.8 46.4 4.8
975 2 22.4 44.8 3.2
976 4 24.0 46.4 4.8
977 2 25.6 44.8 3.2
978 2 27.2 46.4 4.8
979 2 28.8 44.8 3.2
980 2 30.4 46.4 4.8
981 2 32.0 44.8 3.2
982 2 33.6 46.4 4.8
983 1 35.2 44.8 3.2
984 2 36.8 46.4 4.8
985 2 38.4 44.8 3.2
986 2 40.0 46.4 4.8
987 4 41.6 44.8 3.2
988 3 43.2 46.4 4.8
989 4 44.8 44.8 3.2
990 3 46.4 46.4 4.8
991 1 48.0 44.8 3.2
992 3 49.6 46.4 4.8
993 1 0.0 48.0 3.2
994 3 1.6 49.6 4.8
995 1 3.2 48.0 3.2
996 3 4.8 49.6 4.8
997 4 6.4 48.0 3.2
998 2 8.0 49.6 4.8
999 2 9.6 48.0 3.2
1000 4 11.2 49.6 4.8
1001 1 12.8 48.0 3.2
1002 3 14.4 49.6 4.8
1003 2 16.0 48.0 3.2
1004 2 17.6 49.6 4.8
1005 4 19.2 48.0 3.2
1006 3 20.8 49.6 4.8
1007 4 22.4 48.0 3.2
1008 3 24.0 49.6 4.8
1009 2 25.6 48.0 3.2
1010 2 27.2 49.6 4.8
1011 2 28.8 48.0 3.2
1012 3 30.4 49.6 4.8
1013 1 32.0 48.0 3.2
1014 3 33.6 49.6 4.8
1015 1 35.2 48.0 3.2
1016 3 36.8 49.6 4.8
1017 1 38.4 48.0 3.2
1018 3 40.0 49.6 4.8
1019 1 41.6 48.0 3.2
1020 3 43.2 49.6 4.8
1021 1 44.8 48.0 3.2
1022 3 46.4 49.6 4.8
1023 1 48.0 48.0 3.2
1024 3 49.6 49.6 4.8
1025 1 0.0 0.0 6.4
1026 3 1.6 1.6 8.0
1027 1 3.2 0.0 6.4
1028 2 4.8 1.6 8.0
1029 1 6.4 0.0 6.4
1030 3 8.0 1.6 8.0
1031 1 9.6 0.0 6.4
1032 2 11.2 1.6 8.0
1033 2 12.8 0.0 6.4
1034 2 14.4 1.6 8.0
1035 1 16.0 0.0 6.4
1036 3 17.6 1.6 8.0
1037 2 19.2 0.0 6.4
1038 3 20.8 1.6 8.0
1039 1 22.4 0.0 6.4
1040 3 24.0 1.6 8.0
1041 1 25.6 0.0 6.4
1042 3 27.2 1.6 8.0
1043 1 28.8 0.0 6.4
1044 3 30.4 1.6 8.0
1045 4 32.0 0.0 6.4
1046 3 33.6 1.6 8.0
1047 4 35.2 0.0 6.4
1048 3 36.8 1.6 8.0
1049 1 38.4 0.0 6.4
1050 3 40.0 1.6 8.0
1051 1 41.6 0.0 6.4
1052 3 43.2 1.6 8.0
1053 1 44.8 0.0 6.4
1054 3 46.4 1.6 8.0
1055 1 48.0 0.0 6.4
1056 3 49.6 1.6 8.0
1057 1 0.0 3.2 6.4
1058 3 1.6 4.8 8.0
1059 2 3.2 3.2 6.4
1060 2 4.8 4.8 8.0
1061 1 6.4 3.2 6.4
1062 2 8.0 4.8 8.0
1063 1 9.6 3.2 6.4
1064 2 11.2 4.8 8.0
1065 2 12.8 3.2 6.4
1066 2 14.4 4.8 8.0
1067 2 16.0 3.2 6.4
1068 3 17.6 4.8 8.0
1069 1 19.2 3.2 6.4
1070 3 20.8 4.8 8.0
1071 4 22.4 3.2 6.4
1072 2 24.0 4.8 8.0
1073 1 25.6 3.2 6.4
1074 3 27.2 4.8 8.0
1075 1 28.8 3.2 6.4
1076 3 30.4 4.8 8.0
1077 1 32.0 3.2 6.4
1078 3 33.6 4.8 8.0
1079 1 35.2 3.2 6.4
1080 3 36.8 4.8 8.0
1081 1 38.4 3.2 6.4
1082 3 40.0 4.8 8.0
1083 1 41.6 3.2 6.4
1084 2 43.2 4.8 8.0
1085 1 44.8 3.2 6.4
1086 3 46.4 4.8 8.0
1087 1 48.0 3.2 6.4
1088 3 49.6 4.8 8.0
1089 1 0.0 6.4 6.4
1090 3 1.6 8.0 8.0
1091 4 3.2 6.4 6.4
1092 3 4.8 8.0 8.0
1093 1 6.4 6.4 6.4
1094 2 8.0 8.0 8.0
1095 2 9.6 6.4 6.4
1096 2 11.2 8.0 8.0
1097 1 12.8 6.4 6.4
1098 2 14.4 8.0 8.0
1099 4 16.0 6.4 6.4
1100 1 17.6 8.0 8.0
1101 2 19.2 6.4 6.4
1102 2 20.8 8.0 8.0
1103 2 22.4 6.4 6.4
1104 4 24.0 8.0 8.0
1105 1 25.6 6.4 6.4
1106 3 27.2 8.0 8.0
1107 1 28.8 6.4 6.4
1108 3 30.4 8.0 8.0
1109 1 32.0 6.4 6.4
1110 3 33.6 8.0 8.0
1111 4 35.2 6.4 6.4
1112 3 36.8 8.0 8.0
1113 1 38.4 6.4 6.4
1114 3 40.0 8.0 8.0
1115 4 41.6 6.4 6.4
1116 3 43.2 8.0 8.0
1117 2 44.8 6.4 6.4
1118 3 46.4 8.0 8.0
1119 1 48.0 6.4 6.4
1120 3 49.6 8.0 8.0
1121 3 0.0 9.6 6.4
1122 2 1.6 11.2 8.0
1123 2 3.2 9.6 6.4
1124 2 4.8 11.2 8.0
1125 1 6.4 9.6 6.4
1126 2 8.0 11.2 8.0
1127 2 9.6 9.6 6.4
1128 4 11.2 11.2 8.0
1129 2 12.8 9.6 6.4
1130 1 14.4 11.2 8.0
1131 2 16.0 9.6 6.4
1132 4 17.6 11.2 8.0
1133 3 19.2 9.6 6.4
1134 4 20.8 11.2 8.0
1135 2 22.4 9.6 6.4
1136 2 24.0 11.2 8.0
1137 2 25.6 9.6 6.4
1138 1 27.2 11.2 8.0
1139 1 28.8 9.6 6.4
1140 2 30.4 11.2 8.0
1141 1 32.0 9.6 6.4
1142 3 33.6 11.2 8.0
1143 1 35.2 9.6 6.4
1144 2 36.8 11.2 8.0
1145 4 38.4 9.6 6.4
1146 2 40.0 11.2 8.0
1147 2 41.6 9.6 6.4
1148 2 43.2 11.2 8.0
1149 4 44.8 9.6 6.4
1150 3 46.4 11.2 8.0
1151 1 48.0 9.6 6.4
1152 3 49.6 11.2 8.0
1153 2 0.0 12.8 6.4
1154 2 1.6 14.4 8.0
1155 4 3.2 12.8 6.4
1156 2 4.8 14.4 8.0
1157 2 6.4 12.8 6.4
1158 4 8.0 14.4 8.0
1159 2 9.6 12.8 6.4
1160 4 11.2 14.4 8.0
1161 2 12.8 12.8 6.4
1162 4 14.4 14.4 8.0
1163 2 16.0 12.8 6.4
1164 1 17.6 14.4 8.0
1165 2 19.2 12.8 6.4
1166 1 20.8 14.4 8.0
1167 3 22.4 12.8 6.4
1168 3 24.0 14.4 8.0
1169 3 25.6 12.8 6.4
1170 1 27.2 14.4 8.0
1171 2 28.8 12.8 6.4
1172 1 30.4 14.4 8.0
1173 2 32.0 12.8 6.4
1174 1 33.6 14.4 8.0
1175 2 35.2 12.8 6.4
1176 1 36.8 14.4 8.0
1177 2 38.4 12.8 6.4
1178 1 40.0 14.4 8.0
1179 2 41.6 12.8 6.4
1180 2 43.2 14.4 8.0
1181 2 44.8 12.8 6.4
1182 2 46.4 14.4 8.0
1183 2 48.0 12.8 6.4
1184 2 49.6 14.4 8.0
1185 2 0.0 16.0 6.4
1186 2 1.6 17.6 8.0
1187 4 3.2 16.0 6.4
1188 4 4.8 17.6 8.0
1189 2 6.4 16.0 6.4
1190 2 8.0 17.6 8.0
1191 2 9.6 16.0 6.4
1192 4 11.2 17.6 8.0
1193 2 12.8 16.0 6.4
1194 1 14.4 17.6 8.0
1195 2 16.0 16.0 6.4
1196 4 17.6 17.6 8.0
1197 4 19.2 16.0 6.4
1198 4 20.8 17.6 8.0
1199 3 22.4 16.0 6.4
1200 1 24.0 17.6 8.0
1201 3 25.6 16.0 6.4
1202 1 27.2 17.6 8.0
1203 2 28.8 16.0 6.4
1204 1 30.4 17.6 8.0
1205 3 32.0 16.0 6.4
1206 1 33.6 17.6 8.0
1207 3 35.2 16.0 6.4
1208 2 36.8 17.6 8.0
1209 2 38.4 16.0 6.4
1210 2 40.0 17.6 8.0
1211 2 41.6 16.0 6.4
1212 4 43.2 17.6 8.0
1213 2 44.8 16.0 6.4
1214 2 46.4 17.6 8.0
1215 2 48.0 16.0 6.4
1216 2 49.6 17.6 8.0
1217 2 0.0 19.2 6.4
1218 2 1.6 20.8 8.0
1219 2 3.2 19.2 6.4
1220 2 4.8 20.8 8.0
1221 1 6.4 19.2 6.4
1222 2 8.0 20.8 8.0
1223 1 9.6 19.2 6.4
1224 2 11.2 20.8 8.0
1225 3 12.8 19.2 6.4
1226 1 14.4 20.8 8.0
1227 2 16.0 19.2 6.4
1228 1 17.6 20.8 8.0
1229 2 19.2 19.2 6.4
1230 3 20.8 20.8 8.0
1231 3 22.4 19.2 6.4
1232 1 24.0 20.8 8.0
1233 3 25.6 19.2 6.4
1234 1 27.2 20.8 8.0
1235 2 28.8 19.2 6.4
1236 2 30.4 20.8 8.0
1237 3 32.0 19.2 6.4
1238 4 33.6 20.8 8.0
1239 3 35.2 19.2 6.4
1240 2 36.8 20.8 8.0
1241 2 38.4 19.2 6.4
1242 1 40.0 20.8 8.0
1243 2 41.6 19.2 6.4
1244 1 43.2 20.8 8.0
1245 3 44.8 19.2 6.4
1246 2 46.4 20.8 8.0
1247 3 48.0 19.2 6.4
1248 2 49.6 20.8 8.0
1249 4 0.0 22.4 6.4
1250 2 1.6 24.0 8.0
1251 2 3.2 22.4 6.4
1252 2 4.8 24.0 8.0
1253 2 6.4 22.4 6.4
1254 2 8.0 24.0 8.0
1255 4 9.6 22.4 6.4
1256 4 11.2 24.0 8.0
1257 2 12.8 22.4 6.4
1258 1 14.4 24.0 8.0
1259 2 16.0 22.4 6.4
1260 2 17.6 24.0 8.0
1261 2 19.2 22.4 6.4
1262 2 20.8 24.0 8.0
1263 3 22.4 22.4 6.4
1264 1 24.0 24.0 8.0
1265 3 25.6 22.4 6.4
1266 1 27.2 24.0 8.0
1267 3 28.8 22.4 6.4
1268 1 30.4 24.0 8.0
1269 3 32.0 22.4 6.4
1270 1 33.6 24.0 8.0
1271 3 35.2 22.4 6.4
1272 4 36.8 24.0 8.0
1273 3 38.4 22.4 6.4
1274 1 40.0 24.0 8.0
1275 3 41.6 22.4 6.4
1276 1 43.2 24.0 8.0
1277 2 44.8 22.4 6.4
1278 2 46.4 24.0 8.0
1279 2 48.0 22.4 6.4
1280 2 49.6 24.0 8.0
1281 2 0.0 25.6 6.4
1282 2 1.6 27.2 8.0
1283 2 3.2 25.6 6.4
1284 2 4.8 27.2 8.0
1285 2 6.4 25.6 6.4
1286 2 8.0 27.2 8.0
1287 3 9.6 25.6 6.4
1288 2 11.2 27.2 8.0
1289 2 12.8 25.6 6.4
1290 2 14.4 27.2 8.0
1291 4 16.0 25.6 6.4
1292 2 17.6 27.2 8.0
1293 2 19.2 25.6 6.4
1294 4 20.8 27.2 8.0
1295 2 22.4 25.6 6.4
1296 1 24.0 27.2 8.0
1297 3 25.6 25.6 6.4
1298 1 27.2 27.2 8.0
1299 3 28.8 25.6 6.4
1300 1 30.4 27.2 8.0
1301 3 32.0 25.6 6.4
1302 1 33.6 27.2 8.0
1303 2 35.2 25.6 6.4
1304 2 36.8 27.2 8.0
1305 3 38.4 25.6 6.4
1306 2 40.0 27.2 8.0
1307 2 41.6 25.6 6.4
1308 3 43.2 27.2 8.0
1309 2 44.8 25.6 6.4
1310 4 46.4 27.2 8.0
1311 2 48.0 25.6 6.4
1312 2 49.6 27.2 8.0
1313 2 0.0 28.8 6.4
1314 2 1.6 30.4 8.0
1315 1 3.2 28.8 6.4
1316 2 4.8 30.4 8.0
1317 1 6.4 28.8 6.4
1318 3 8.0 30.4 8.0
1319 4 9.6 28.8 6.4
1320 2 11.2 30.4 8.0
1321 2 12.8 28.8 6.4
1322 2 14.4 30.4 8.0
1323 2 16.0 28.8 6.4
1324 4 17.6 30.4 8.0
1325 2 19.2 28.8 6.4
1326 4 20.8 30.4 8.0
1327 2 22.4 28.8 6.4
1328 1 24.0 30.4 8.0
1329 3 25.6 28.8 6.4
1330 1 27.2 30.4 8.0
1331 2 28.8 28.8 6.4
1332 1 30.4 30.4 8.0
1333 2 32.0 28.8 6.4
1334 2 33.6 30.4 8.0
1335 2 35.2 28.8 6.4
1336 2 36.8 30.4 8.0
1337 2 38.4 28.8 6.4
1338 4 40.0 30.4 8.0
1339 2 41.6 28.8 6.4
1340 2 43.2 30.4 8.0
1341 2 44.8 28.8 6.4
1342 1 46.4 30.4 8.0
1343 2 48.0 28.8 6.4
1344 2 49.6 30.4 8.0
1345 2 0.0 32.0 6.4
1346 2 1.6 33.6 8.0
1347 2 3.2 32.0 6.4
1348 4 4.8 33.6 8.0
1349 1 6.4 32.0 6.4
1350 2 8.0 33.6 8.0
1351 4 9.6 32.0 6.4
1352 2 11.2 33.6 8.0
1353 4 12.8 32.0 6.4
1354 2 14.4 33.6 8.0
1355 2 16.0 32.0 6.4
1356 2 17.6 33.6 8.0
1357 2 19.2 32.0 6.4
1358 2 20.8 33.6 8.0
1359 2 22.4 32.0 6.4
1360 2 24.0 33.6 8.0
1361 2 25.6 32.0 6.4
1362 2 27.2 33.6 8.0
1363 3 28.8 32.0 6.4
1364 4 30.4 33.6 8.0
1365 2 32.0 32.0 6.4
1366 2 33.6 33.6 8.0
1367 2 35.2 32.0 6.4
1368 2 36.8 33.6 8.0
1369 2 38.4 32.0 6.4
1370 2 40.0 33.6 8.0
1371 1 41.6 32.0 6.4
1372 2 43.2 33.6 8.0
1373 2 44.8 32.0 6.4
1374 2 46.4 33.6 8.0
1375 4 48.0 32.0 6.4
1376 2 49.6 33.6 8.0
1377 2 0.0 35.2 6.4
1378 3 1.6 36.8 8.0
1379 2 3.2 35.2 6.4
1380 2 4.8 36.8 8.0
1381 4 6.4 35.2 6.4
1382 2 8.0 36.8 8.0
1383 2 9.6 35.2 6.4
1384 2 11.2 36.8 8.0
1385 2 12.8 35.2 6.4
1386 1 14.4 36.8 8.0
1387 2 16.0 35.2 6.4
1388 1 17.6 36.8 8.0
1389 2 19.2 35.2 6.4
1390 1 20.8 36.8 8.0
1391 2 22.4 35.2 6.4
1392 2 24.0 36.8 8.0
1393 2 25.6 35.2 6.4
1394 4 27.2 36.8 8.0
1395 3 28.8 35.2 6.4
1396 4 30.4 36.8 8.0
1397 3 32.0 35.2 6.4
1398 2 33.6 36.8 8.0
1399 3 35.2 35.2 6.4
1400 2 36.8 36.8 8.0
1401 2 38.4 35.2 6.4
1402 1 40.0 36.8 8.0
1403 2 41.6 35.2 6.4
1404 2 43.2 36.8 8.0
1405 4 44.8 35.2 6.4
1406 2 46.4 36.8 8.0
1407 2 48.0 35.2 6.4
1408 3 49.6 36.8 8.0
1409 1 0.0 38.4 6.4
1410 3 1.6 40.0 8.0
1411 1 3.2 38.4 6.4
1412 3 4.8 40.0 8.0
1413 2 6.4 38.4 6.4
1414 2 8.0 40.0 8.0
1415 2 9.6 38.4 6.4
1416 2 11.2 40.0 8.0
1417 4 12.8 38.4 6.4
1418 4 14.4 40.0 8.0
1419 2 16.0 38.4 6.4
1420 2 17.6 40.0 8.0
1421 2 19.2 38.4 6.4
1422 3 20.8 40.0 8.0
1423 2 22.4 38.4 6.4
1424 3 24.0 40.0 8.0
1425 2 25.6 38.4 6.4
1426 2 27.2 40.0 8.0
1427 3 28.8 38.4 6.4
1428 1 30.4 40.0 8.0
1429 2 32.0 38.4 6.4
1430 1 33.6 40.0 8.0
1431 2 35.2 38.4 6.4
1432 2 36.8 40.0 8.0
1433 2 38.4 38.4 6.4
1434 2 40.0 40.0 8.0
1435 2 41.6 38.4 6.4
1436 3 43.2 40.0 8.0
1437 1 44.8 38.4 6.4
1438 3 46.4 40.0 8.0
1439 1 48.0 38.4 6.4
1440 2 49.6 40.0 8.0
1441 1 0.0 41.6 6.4
1442 2 1.6 43.2 8.0
1443 1 3.2 41.6 6.4
1444 2 4.8 43.2 8.0
1445 2 6.4 41.6 6.4
1446 2 8.0 43.2 8.0
1447 4 9.6 41.6 6.4
1448 4 11.2 43.2 8.0
1449 2 12.8 41.6 6.4
1450 2 14.4 43.2 8.0
1451 3 16.0 41.6 6.4
1452 2 17.6 43.2 8.0
1453 4 19.2 41.6 6.4
1454 2 20.8 43.2 8.0
1455 4 22.4 41.6 6.4
1456 2 24.0 43.2 8.0
1457 2 25.6 41.6 6.4
1458 1 27.2 43.2 8.0
1459 2 28.8 41.6 6.4
1460 2 30.4 43.2 8.0
1461 2 32.0 41.6 6.4
1462 2 33.6 43.2 8.0
1463 2 35.2 41.6 6.4
1464 2 36.8 43.2 8.0
1465 2 38.4 41.6 6.4
1466 2 40.0 43.2 8.0
1467 1 41.6 41.6 6.4
1468 2 43.2 43.2 8.0
1469 1 44.8 41.6 6.4
1470 2 46.4 43.2 8.0
1471 1 48.0 41.6 6.4
1472 3 49.6 43.2 8.0
1473 1 0.0 44.8 6.4
1474 3 1.6 46.4 8.0
1475 1 3.2 44.8 6.4
1476 3 4.8 46.4 8.0
1477 4 6.4 44.8 6.4
1478 2 8.0 46.4 8.0
1479 2 9.6 44.8 6.4
1480 2 11.2 46.4 8.0
1481 2 12.8 44.8 6.4
1482 2 14.4 46.4 8.0
1483 3 16.0 44.8 6.4
1484 2 17.6 46.4 8.0
1485 2 19.2 44.8 6.4
1486 2 20.8 46.4 8.0
1487 2 22.4 44.8 6.4
1488 3 24.0 46.4 8.0
1489 2 25.6 44.8 6.4
1490 2 27.2 46.4 8.0
1491 4 28.8 44.8 6.4
1492 2 30.4 46.4 8.0
1493 2 32.0 44.8 6.4
1494 2 33.6 46.4 8.0
1495 2 35.2 44.8 6.4
1496 2 36.8 46.4 8.0
1497 2 38.4 44.8 6.4
1498 2 40.0 46.4 8.0
1499 2 41.6 44.8 6.4
1500 2 43.2 46.4 8.0