 # Bcc Mo oriented X=[100] Y=[010] Z=[001].
  
        8192  atoms
           4  atom types
 
      0.000000000000      51.200000000000  xlo xhi
      0.000000000000      51.200000000000  ylo yhi
      0.000000000000      51.200000000000  zlo zhi
 
 
 
Atoms # atomic

1 1 0.0 0.0 0.0
2 3 1.6 1.6 1.6
3 1 3.2 0.0 0.0
4 4 4.8 1.6 1.6
5 2 6.4 0.0 0.0
6 2 8.0 1.6 1.6
7 4 9.6 0.0 0.0
8 2 11.2 1.6 1.6
9 1 12.8 0.0 0.0
10 2 14.4 1.6 1.6
11 4 16.0 0.0 0.0
12 3 17.6 1.6 1.6
13 1 19.2 0.0 0.0
14 3 20.8 1.6 1.6
15 1 22.4 0.0 0.0
16 2 24.0 1.6 1.6
17 1 25.6 0.0 0.0
18 3 27.2 1.6 1.6
19 4 28.8 0.0 0.0
20 2 30.4 1.6 1.6
21 2 32.0 0.0 0.0
22 3 33.6 1.6 1.6
23 3 35.2 0.0 0.0
24 2 36.8 1.6 1.6
25 2 38.4 0.0 0.0
26 2 40.0 1.6 1.6
27 2 41.6 0.0 0.0
28 2 43.2 1.6 1.6
29 1 44.8 0.0 0.0
30 2 46.4 1.6 1.6
31 1 48.0 0.0 0.0
32 3 49.6 1.6 1.6
33 1 0.0 3.2 0.0
34 3 1.6 4.8 1.6
35 1 3.2 3.2 0.0
36 2 4.8 4.8 1.6
37 2 6.4 3.2 0.0
38 4 8.0 4.8 1.6
39 2 9.6 3.2 0.0
40 1 11.2 4.8 1.6
41 2 12.8 3.2 0.0
42 1 14.4 4.8 1.6
43 2 16.0 3.2 0.0
44 1 17.6 4.8 1.6
45 2 19.2 3.2 0.0
46 3 20.8 4.8 1.6
47 1 22.4 3.2 0.0
48 3 24.0 4.8 1.6
49 1 25.6 3.2 0.0
50 3 27.2 4.8 1.6
51 2 28.8 3.2 0.0
52 2 30.4 4.8 1.6
53 4 32.0 3.2 0.0
54 2 33.6 4.8 1.6
55 2 35.2 3.2 0.0
56 4 36.8 4.8 1.6
57 2 38.4 3.2 0.0
58 4 40.0 4.8 1.6
59 2 41.6 3.2 0.0
60 4 43.2 4.8 1.6
61 2 44.8 3.2 0.0
62 3 46.4 4.8 1.6
63 4 48.0 3.2 0.0
64 3 49.6 4.8 1.6
65 4 0.0 6.4 0.0
66 2 1.6 8.0 1.6
67 2 3.2 6.4 0.0
68 3 4.8 8.0 1.6
69 3 6.4 6.4 0.0
70 1 8.0 8.0 1.6
71 2 9.6 6.4 0.0
72 1 11.2 8.0 1.6
73 3 12.8 6.4 0.0
74 4 14.4 8.0 1.6
75 3 16.0 6.4 0.0
76 4 17.6 8.0 1.6
77 2 19.2 6.4 0.0
78 3 20.8 8.0 1.6
79 1 22.4 6.4 0.0
80 3 24.0 8.0 1.6
81 2 25.6 6.4 0.0
82 2 27.2 8.0 1.6
83 2 28.8 6.4 0.0
84 2 30.4 8.0 1.6
85 3 32.0 6.4 0.0
86 2 33.6 8.0 1.6
87 4 35.2 6.4 0.0
88 2 36.8 8.0 1.6
89 2 38.4 6.4 0.0
90 4 40.0 8.0 1.6
91 2 41.6 6.4 0.0
92 2 43.2 8.0 1.6
93 4 44.8 6.4 0.0
94 2 46.4 8.0 1.6
95 1 48.0 6.4 0.0
96 3 49.6 8.0 1.6
97 4 0.0 9.6 0.0
98 2 1.6 11.2 1.6
99 4 3.2 9.6 0.0
100 3 4.8 11.2 1.6
101 2 6.4 9.6 0.0
102 4 8.0 11.2 1.6
103 3 9.6 9.6 0.0
104 2 11.2 11.2 1.6
105 3 12.8 9.6 0.0
106 1 14.4 11.2 1.6
107 3 16.0 9.6 0.0
108 1 17.6 11.2 1.6
109 3 19.2 9.6 0.0
110 3 20.8 11.2 1.6
111 1 22.4 9.6 0.0
112 3 24.0 11.2 1.6
113 2 25.6 9.6 0.0
114 1 27.2 11.2 1.6
115 2 28.8 9.6 0.0
116 1 30.4 11.2 1.6
117 2 32.0 9.6 0.0
118 1 33.6 11.2 1.6
119 2 35.2 9.6 0.0
120 1 36.8 11.2 1.6
121 3 38.4 9.6 0.0
122 2 40.0 11.2 1.6
123 2 41.6 9.6 0.0
124 4 43.2 11.2 1.6
125 2 44.8 9.6 0.0
126 2 46.4 11.2 1.6
127 2 48.0 9.6 0.0
128 2 49.6 11.2 1.6
129 2 0.0 12.8 0.0
130 2 1.6 14.4 1.6
131 1 3.2 12.8 0.0
132 2 4.8 14.4 1.6
133 4 6.4 12.8 0.0
134 3 8.0 14.4 1.6
135 2 9.6 12.8 0.0
136 3 11.2 14.4 1.6
137 3 12.8 12.8 0.0
138 1 14.4 14.4 1.6
139 3 16.0 12.8 0.0
140 4 17.6 14.4 1.6
141 2 19.2 12.8 0.0
142 2 20.8 14.4 1.6
143 1 22.4 12.8 0.0
144 2 24.0 14.4 1.6
145 2 25.6 12.8 0.0
146 1 27.2 14.4 1.6
147 3 28.8 12.8 0.0
148 1 30.4 14.4 1.6
149 2 32.0 12.8 0.0
150 1 33.6 14.4 1.6
151 3 35.2 12.8 0.0
152 1 36.8 14.4 1.6
153 3 38.4 12.8 0.0
154 4 40.0 14.4 1.6
155 2 41.6 12.8 0.0
156 1 43.2 14.4 1.6
157 2 44.8 12.8 0.0
158 1 46.4 14.4 1.6
159 2 48.0 12.8 0.0
160 4 49.6 14.4 1.6
161 3 0.0 16.0 0.0
162 2 1.6 17.6 1.6
163 2 3.2 16.0 0.0
164 2 4.8 17.6 1.6
165 2 6.4 16.0 0.0
166 2 8.0 17.6 1.6
167 1 9.6 16.0 0.0
168 2 11.2 17.6 1.6
169 3 12.8 16.0 0.0
170 1 14.4 17.6 1.6
171 2 16.0 16.0 0.0
172 2 17.6 17.6 1.6
173 3 19.2 16.0 0.0
174 2 20.8 17.6 1.6
175 4 22.4 16.0 0.0
176 4 24.0 17.6 1.6
177 3 25.6 16.0 0.0
178 4 27.2 17.6 1.6
179 2 28.8 16.0 0.0
180 1 30.4 17.6 1.6
181 3 32.0 16.0 0.0
182 4 33.6 17.6 1.6
183 3 35.2 16.0 0.0
184 1 36.8 17.6 1.6
185 2 38.4 16.0 0.0
186 4 40.0 17.6 1.6
187 2 41.6 16.0 0.0
188 2 43.2 17.6 1.6
189 2 44.8 16.0 0.0
190 2 46.4 17.6 1.6
191 3 48.0 16.0 0.0
192 1 49.6 17.6 1.6
193 3 0.0 19.2 0.0
194 3 1.6 20.8 1.6
195 2 3.2 19.2 0.0
196 2 4.8 20.8 1.6
197 1 6.4 19.2 0.0
198 3 8.0 20.8 1.6
199 1 9.6 19.2 0.0
200 2 11.2 20.8 1.6
201 3 12.8 19.2 0.0
202 1 14.4 20.8 1.6
203 3 16.0 19.2 0.0
204 2 17.6 20.8 1.6
205 1 19.2 19.2 0.0
206 3 20.8 20.8 1.6
207 2 22.4 19.2 0.0
208 3 24.0 20.8 1.6
209 2 25.6 19.2 0.0
210 2 27.2 20.8 1.6
211 2 28.8 19.2 0.0
212 1 30.4 20.8 1.6
213 2 32.0 19.2 0.0
214 1 33.6 20.8 1.6
215 2 35.2 19.2 0.0
216 1 36.8 20.8 1.6
217 3 38.4 19.2 0.0
218 4 40.0 20.8 1.6
219 3 41.6 19.2 0.0
220 1 43.2 20.8 1.6
221 2 44.8 19.2 0.0
222 1 46.4 20.8 1.6
223 2 48.0 19.2 0.0
224 2 49.6 20.8 1.6
225 2 0.0 22.4 0.0
226 2 1.6 24.0 1.6
227 2 3.2 22.4 0.0
228 3 4.8 24.0 1.6
229 4 6.4 22.4 0.0
230 3 8.0 24.0 1.6
231 4 9.6 22.4 0.0
232 2 11.2 24.0 1.6
233 3 12.8 22.4 0.0
234 1 14.4 24.0 1.6
235 3 16.0 22.4 0.0
236 3 17.6 24.0 1.6
237 1 19.2 22.4 0.0
238 3 20.8 24.0 1.6
239 1 22.4 22.4 0.0
240 3 24.0 24.0 1.6
241 2 25.6 22.4 0.0
242 2 27.2 24.0 1.6
243 3 28.8 22.4 0.0
244 2 30.4 24.0 1.6
245 2 32.0 22.4 0.0
246 4 33.6 24.0 1.6
247 2 35.2 22.4 0.0
248 2 36.8 24.0 1.6
249 2 38.4 22.4 0.0
250 1 40.0 24.0 1.6
251 2 41.6 22.4 0.0
252 1 43.2 24.0 1.6
253 3 44.8 22.4 0.0
254 2 46.4 24.0 1.6
255 2 48.0 22.4 0.0
256 2 49.6 24.0 1.6
257 2 0.0 25.6 0.0
258 4 1.6 27.2 1.6
259 3 3.2 25.6 0.0
260 2 4.8 27.2 1.6
261 1 6.4 25.6 0.0
262 3 8.0 27.2 1.6
263 3 9.6 25.6 0.0
264 2 11.2 27.2 1.6
265 2 12.8 25.6 0.0
266 1 14.4 27.2 1.6
267 3 16.0 25.6 0.0
268 2 17.6 27.2 1.6
269 1 19.2 25.6 0.0
270 3 20.8 27.2 1.6
271 1 22.4 25.6 0.0
272 3 24.0 27.2 1.6
273 2 25.6 25.6 0.0
274 3 27.2 27.2 1.6
275 2 28.8 25.6 0.0
276 2 30.4 27.2 1.6
277 2 32.0 25.6 0.0
278 2 33.6 27.2 1.6
279 4 35.2 25.6 0.0
280 1 36.8 27.2 1.6
281 2 38.4 25.6 0.0
282 2 40.0 27.2 1.6
283 2 41.6 25.6 0.0
284 1 43.2 27.2 1.6
285 3 44.8 25.6 0.0
286 1 46.4 27.2 1.6
287 2 48.0 25.6 0.0
288 2 49.6 27.2 1.6
289 2 0.0 28.8 0.0
290 2 1.6 30.4 1.6
291 2 3.2 28.8 0.0
292 2 4.8 30.4 1.6
293 1 6.4 28.8 0.0
294 2 8.0 30.4 1.6
295 1 9.6 28.8 0.0
296 2 11.2 30.4 1.6
297 2 12.8 28.8 0.0
298 2 14.4 30.4 1.6
299 2 16.0 28.8 0.0
300 3 17.6 30.4 1.6
301 1 19.2 28.8 0.0
302 3 20.8 30.4 1.6
303 4 22.4 28.8 0.0
304 3 24.0 30.4 1.6
305 2 25.6 28.8 0.0
306 2 27.2 30.4 1.6
307 3 28.8 28.8 0.0
308 2 30.4 30.4 1.6
309 2 32.0 28.8 0.0
310 1 33.6 30.4 1.6
311 2 35.2 28.8 0.0
312 2 36.8 30.4 1.6
313 1 38.4 28.8 0.0
314 2 40.0 30.4 1.6
315 2 41.6 28.8 0.0
316 1 43.2 30.4 1.6
317 2 44.8 28.8 0.0
318 4 46.4 30.4 1.6
319 2 48.0 28.8 0.0
320 2 49.6 30.4 1.6
321 1 0.0 32.0 0.0
322 3 1.6 33.6 1.6
323 2 3.2 32.0 0.0
324 2 4.8 33.6 1.6
325 2 6.4 32.0 0.0
326 2 8.0 33.6 1.6
327 2 9.6 32.0 0.0
328 2 11.2 33.6 1.6
329 1 12.8 32.0 0.0
330 3 14.4 33.6 1.6
331 1 16.0 32.0 0.0
332 3 17.6 33.6 1.6
333 1 19.2 32.0 0.0
334 3 20.8 33.6 1.6
335 2 22.4 32.0 0.0
336 3 24.0 33.6 1.6
337 1 25.6 32.0 0.0
338 2 27.2 33.6 1.6
339 2 28.8 32.0 0.0
340 2 30.4 33.6 1.6
341 2 32.0 32.0 0.0
342 1 33.6 33.6 1.6
343 2 35.2 32.0 0.0
344 2 36.8 33.6 1.6
345 1 38.4 32.0 0.0
346 2 40.0 33.6 1.6
347 2 41.6 32.0 0.0
348 2 43.2 33.6 1.6
349 4 44.8 32.0 0.0
350 3 46.4 33.6 1.6
351 2 48.0 32.0 0.0
352 3 49.6 33.6 1.6
353 1 0.0 35.2 0.0
354 2 1.6 36.8 1.6
355 1 3.2 35.2 0.0
356 3 4.8 36.8 1.6
357 4 6.4 35.2 0.0
358 2 8.0 36.8 1.6
359 2 9.6 35.2 0.0
360 2 11.2 36.8 1.6
361 2 12.8 35.2 0.0
362 1 14.4 36.8 1.6
363 2 16.0 35.2 0.0
364 1 17.6 36.8 1.6
365 3 19.2 35.2 0.0
366 1 20.8 36.8 1.6
367 2 22.4 35.2 0.0
368 2 24.0 36.8 1.6
369 2 25.6 35.2 0.0
370 1 27.2 36.8 1.6
371 3 28.8 35.2 0.0
372 1 30.4 36.8 1.6
373 3 32.0 35.2 0.0
374 1 33.6 36.8 1.6
375 2 35.2 35.2 0.0
376 2 36.8 36.8 1.6
377 2 38.4 35.2 0.0
378 2 40.0 36.8 1.6
379 1 41.6 35.2 0.0
380 3 43.2 36.8 1.6
381 1 44.8 35.2 0.0
382 3 46.4 36.8 1.6
383 1 48.0 35.2 0.0
384 3 49.6 36.8 1.6
385 1 0.0 38.4 0.0
386 3 1.6 40.0 1.6
387 1 3.2 38.4 0.0
388 3 4.8 40.0 1.6
389 1 6.4 38.4 0.0
390 2 8.0 40.0 1.6
391 1 9.6 38.4 0.0
392 2 11.2 40.0 1.6
393 2 12.8 38.4 0.0
394 1 14.4 40.0 1.6
395 3 16.0 38.4 0.0
396 1 17.6 40.0 1.6
397 3 19.2 38.4 0.0
398 4 20.8 40.0 1.6
399 3 22.4 38.4 0.0
400 4 24.0 40.0 1.6
401 3 25.6 38.4 0.0
402 1 27.2 40.0 1.6
403 3 28.8 38.4 0.0
404 1 30.4 40.0 1.6
405 3 32.0 38.4 0.0
406 1 33.6 40.0 1.6
407 2 35.2 38.4 0.0
408 2 36.8 40.0 1.6
409 1 38.4 38.4 0.0
410 2 40.0 40.0 1.6
411 4 41.6 38.4 0.0
412 3 43.2 40.0 1.6
413 1 44.8 38.4 0.0
414 3 46.4 40.0 1.6
415 1 48.0 38.4 0.0
416 3 49.6 40.0 1.6
417 1 0.0 41.6 0.0
418 3 1.6 43.2 1.6
419 1 3.2 41.6 0.0
420 2 4.8 43.2 1.6
421 2 6.4 41.6 0.0
422 1 8.0 43.2 1.6
423 2 9.6 41.6 0.0
424 1 11.2 43.2 1.6
425 2 12.8 41.6 0.0
426 1 14.4 43.2 1.6
427 3 16.0 41.6 0.0
428 1 17.6 43.2 1.6
429 3 19.2 41.6 0.0
430 1 20.8 43.2 1.6
431 2 22.4 41.6 0.0
432 2 24.0 43.2 1.6
433 2 25.6 41.6 0.0
434 2 27.2 43.2 1.6
435 2 28.8 41.6 0.0
436 2 30.4 43.2 1.6
437 2 32.0 41.6 0.0
438 2 33.6 43.2 1.6
439 4 35.2 41.6 0.0
440 2 36.8 43.2 1.6
441 2 38.4 41.6 0.0
442 2 40.0 43.2 1.6
443 1 41.6 41.6 0.0
444 3 43.2 43.2 1.6
445 1 44.8 41.6 0.0
446 3 46.4 43.2 1.6
447 1 48.0 41.6 0.0
448 3 49.6 43.2 1.6
449 1 0.0 44.8 0.0
450 3 1.6 46.4 1.6
451 1 3.2 44.8 0.0
452 2 4.8 46.4 1.6
453 3 6.4 44.8 0.0
454 4 8.0 46.4 1.6
455 3 9.6 44.8 0.0
456 2 11.2 46.4 1.6
457 3 12.8 44.8 0.0
458 1 14.4 46.4 1.6
459 2 16.0 44.8 0.0
460 4 17.6 46.4 1.6
461 3 19.2 44.8 0.0
462 2 20.8 46.4 1.6
463 3 22.4 44.8 0.0
464 2 24.0 46.4 1.6
465 2 25.6 44.8 0.0
466 2 27.2 46.4 1.6
467 1 28.8 44.8 0.0
468 2 30.4 46.4 1.6
469 4 32.0 44.8 0.0
470 2 33.6 46.4 1.6
471 2 35.2 44.8 0.0
472 1 36.8 46.4 1.6
473 3 38.4 44.8 0.0
474 4 40.0 46.4 1.6
475 2 41.6 44.8 0.0
476 3 43.2 46.4 1.6
477 1 44.8 44.8 0.0
478 3 46.4 46.4 1.6
479 4 48.0 44.8 0.0
480 3 49.6 46.4 1.6
481 1 0.0 48.0 0.0
482 3 1.6 49.6 1.6
483 1 3.2 48.0 0.0
484 2 4.8 49.6 1.6
485 2 6.4 48.0 0.0
486 4 8.0 49.6 1.6
487 2 9.6 48.0 0.0
488 3 11.2 49.6 1.6
489 2 12.8 48.0 0.0
490 3 14.4 49.6 1.6
491 2 16.0 48.0 0.0
492 2 17.6 49.6 1.6
493 2 19.2 48.0 0.0
494 2 20.8 49.6 1.6
495 2 22.4 48.0 0.0
496 2 24.0 49.6 1.6
497 2 25.6 48.0 0.0
498 2 27.2 49.6 1.6
499 1 28.8 48.0 0.0
500 2 30.4 49.6 1.6
501 1 32.0 48.0 0.0
502 2 33.6 49.6 1.6
503 2 35.2 48.0 0.0
504 2 36.8 49.6 1.6
505 2 38.4 48.0 0.0
506 4 40.0 49.6 1.6
507 3 41.6 48.0 0.0
508 2 43.2 49.6 1.6
509 1 44.8 48.0 0.0
510 3 46.4 49.6 1.6
511 1 48.0 48.0 0.0
512 3 49.6 49.6 1.6
513 1 0.0 0.0 3.2
514 3 1.6 1.6 4.8
515 2 3.2 0.0 3.2
516 2 4.8 1.6 4.8
517 2 6.4 0.0 3.2
518 2 8.0 1.6 4.8
519 2 9.6 0.0 3.2
520 2 11.2 1.6 4.8
521 1 12.8 0.0 3.2
522 3 14.4 1.6 4.8
523 1 16.0 0.0 3.2
524 3 17.6 1.6 4.8
525 4 19.2 0.0 3.2
526 3 20.8 1.6 4.8
527 1 22.4 0.0 3.2
528 3 24.0 1.6 4.8
529 2 25.6 0.0 3.2
530 2 27.2 1.6 4.8
531 2 28.8 0.0 3.2
532 2 30.4 1.6 4.8
533 2 32.0 0.0 3.2
534 2 33.6 1.6 4.8
535 1 35.2 0.0 3.2
536 3 36.8 1.6 4.8
537 2 38.4 0.0 3.2
538 2 40.0 1.6 4.8
539 2 41.6 0.0 3.2
540 3 43.2 1.6 4.8
541 1 44.8 0.0 3.2
542 3 46.4 1.6 4.8
543 4 48.0 0.0 3.2
544 3 49.6 1.6 4.8
545 1 0.0 3.2 3.2
546 3 1.6 4.8 4.8
547 1 3.2 3.2 3.2
548 2 4.8 4.8 4.8
549 2 6.4 3.2 3.2
550 2 8.0 4.8 4.8
551 2 9.6 3.2 3.2
552 2 11.2 4.8 4.8
553 2 12.8 3.2 3.2
554 2 14.4 4.8 4.8
555 2 16.0 3.2 3.2
556 2 17.6 4.8 4.8
557 4 19.2 3.2 3.2
558 3 20.8 4.8 4.8
559 1 22.4 3.2 3.2
560 3 24.0 4.8 4.8
561 4 25.6 3.2 3.2
562 3 27.2 4.8 4.8
563 1 28.8 3.2 3.2
564 3 30.4 4.8 4.8
565 2 32.0 3.2 3.2
566 2 33.6 4.8 4.8
567 4 35.2 3.2 3.2
568 2 36.8 4.8 4.8
569 2 38.4 3.2 3.2
570 2 40.0 4.8 4.8
571 2 41.6 3.2 3.2
572 2 43.2 4.8 4.8
573 4 44.8 3.2 3.2
574 3 46.4 4.8 4.8
575 1 48.0 3.2 3.2
576 3 49.6 4.8 4.8
577 1 0.0 6.4 3.2
578 3 1.6 8.0 4.8
579 1 3.2 6.4 3.2
580 3 4.8 8.0 4.8
581 2 6.4 6.4 3.2
582 2 8.0 8.0 4.8
583 3 9.6 6.4 3.2
584 3 11.2 8.0 4.8
585 3 12.8 6.4 3.2
586 1 14.4 8.0 4.8
587 3 16.0 6.4 3.2
588 1 17.6 8.0 4.8
589 2 19.2 6.4 3.2
590 2 20.8 8.0 4.8
591 1 22.4 6.4 3.2
592 3 24.0 8.0 4.8
593 1 25.6 6.4 3.2
594 3 27.2 8.0 4.8
595 1 28.8 6.4 3.2
596 3 30.4 8.0 4.8
597 1 32.0 6.4 3.2
598 2 33.6 8.0 4.8
599 2 35.2 6.4 3.2
600 3 36.8 8.0 4.8
601 2 38.4 6.4 3.2
602 3 40.0 8.0 4.8
603 2 41.6 6.4 3.2
604 2 43.2 8.0 4.8
605 2 44.8 6.4 3.2
606 2 46.4 8.0 4.8
607 1 48.0 6.4 3.2
608 3 49.6 8.0 4.8
609 4 0.0 9.6 3.2
610 2 1.6 11.2 4.8
611 1 3.2 9.6 3.2
612 3 4.8 11.2 4.8
613 3 6.4 9.6 3.2
614 3 8.0 11.2 4.8
615 3 9.6 9.6 3.2
616 1 11.2 11.2 4.8
617 2 12.8 9.6 3.2
618 4 14.4 11.2 4.8
619 3 16.0 9.6 3.2
620 1 17.6 11.2 4.8
621 2 19.2 9.6 3.2
622 2 20.8 11.2 4.8
623 1 22.4 9.6 3.2
624 3 24.0 11.2 4.8
625 2 25.6 9.6 3.2
626 3 27.2 11.2 4.8
627 2 28.8 9.6 3.2
628 2 30.4 11.2 4.8
629 3 32.0 9.6 3.2
630 4 33.6 11.2 4.8
631 3 35.2 9.6 3.2
632 1 36.8 11.2 4.8
633 2 38.4 9.6 3.2
634 2 40.0 11.2 4.8
635 2 41.6 9.6 3.2
636 4 43.2 11.2 4.8
637 4 44.8 9.6 3.2
638 3 46.4 11.2 4.8
639 1 48.0 9.6 3.2
640 3 49.6 11.2 4.8
641 2 0.0 12.8 3.2
642 3 1.6 14.4 4.8
643 2 3.2 12.8 3.2
644 2 4.8 14.4 4.8
645 4 6.4 12.8 3.2
646 3 8.0 14.4 4.8
647 3 9.6 12.8 3.2
648 4 11.2 14.4 4.8
649 3 12.8 12.8 3.2
650 4 14.4 14.4 4.8
651 2 16.0 12.8 3.2
652 2 17.6 14.4 4.8
653 2 19.2 12.8 3.2
654 4 20.8 14.4 4.8
655 4 22.4 12.8 3.2
656 3 24.0 14.4 4.8
657 3 25.6 12.8 3.2
658 2 27.2 14.4 4.8
659 3 28.8 12.8 3.2
660 4 30.4 14.4 4.8
661 3 32.0 12.8 3.2
662 1 33.6 14.4 4.8
663 2 35.2 12.8 3.2
664 1 36.8 14.4 4.8
665 2 38.4 12.8 3.2
666 2 40.0 14.4 4.8
667 2 41.6 12.8 3.2
668 1 43.2 14.4 4.8
669 2 44.8 12.8 3.2
670 4 46.4 14.4 4.8
671 2 48.0 12.8 3.2
672 3 49.6 14.4 4.8
673 4 0.0 16.0 3.2
674 3 1.6 17.6 4.8
675 4 3.2 16.0 3.2
676 2 4.8 17.6 4.8
677 2 6.4 16.0 3.2
678 3 8.0 17.6 4.8
679 4 9.6 16.0 3.2
680 2 11.2 17.6 4.8
681 2 12.8 16.0 3.2
682 4 14.4 17.6 4.8
683 2 16.0 16.0 3.2
684 3 17.6 17.6 4.8
685 2 19.2 16.0 3.2
686 2 20.8 17.6 4.8
687 2 22.4 16.0 3.2
688 2 24.0 17.6 4.8
689 2 25.6 16.0 3.2
690 2 27.2 17.6 4.8
691 2 28.8 16.0 3.2
692 2 30.4 17.6 4.8
693 3 32.0 16.0 3.2
694 2 33.6 17.6 4.8
695 3 35.2 16.0 3.2
696 1 36.8 17.6 4.8
697 3 38.4 16.0 3.2
698 1 40.0 17.6 4.8
699 3 41.6 16.0 3.2
700 4 43.2 17.6 4.8
701 2 44.8 16.0 3.2
702 1 46.4 17.6 4.8
703 3 48.0 16.0 3.2
704 3 49.6 17.6 4.8
705 2 0.0 19.2 3.2
706 2 1.6 20.8 4.8
707 1 3.2 19.2 3.2
708 3 4.8 20.8 4.8
709 1 6.4 19.2 3.2
710 3 8.0 20.8 4.8
711 1 9.6 19.2 3.2
712 2 11.2 20.8 4.8
713 3 12.8 19.2 3.2
714 2 14.4 20.8 4.8
715 2 16.0 19.2 3.2
716 2 17.6 20.8 4.8
717 4 19.2 19.2 3.2
718 3 20.8 20.8 4.8
719 2 22.4 19.2 3.2
720 2 24.0 20.8 4.8
721 2 25.6 19.2 3.2
722 2 27.2 20.8 4.8
723 2 28.8 19.2 3.2
724 2 30.4 20.8 4.8
725 3 32.0 19.2 3.2
726 1 33.6 20.8 4.8
727 3 35.2 19.2 3.2
728 1 36.8 20.8 4.8
729 3 38.4 19.2 3.2
730 1 40.0 20.8 4.8
731 3 41.6 19.2 3.2
732 4 43.2 20.8 4.8
733 2 44.8 19.2 3.2
734 2 46.4 20.8 4.8
735 2 48.0 19.2 3.2
736 2 49.6 20.8 4.8
737 2 0.0 22.4 3.2
738 2 1.6 24.0 4.8
739 1 3.2 22.4 3.2
740 3 4.8 24.0 4.8
741 1 6.4 22.4 3.2
742 3 8.0 24.0 4.8
743 1 9.6 22.4 3.2
744 3 11.2 24.0 4.8
745 2 12.8 22.4 3.2
746 2 14.4 24.0 4.8
747 2 16.0 22.4 3.2
748 2 17.6 24.0 4.8
749 1 19.2 22.4 3.2
750 3 20.8 24.0 4.8
751 1 22.4 22.4 3.2
752 3 24.0 24.0 4.8
753 4 25.6 22.4 3.2
754 2 27.2 24.0 4.8
755 2 28.8 22.4 3.2
756 4 30.4 24.0 4.8
757 3 32.0 22.4 3.2
758 1 33.6 24.0 4.8
759 3 35.2 22.4 3.2
760 1 36.8 24.0 4.8
761 3 38.4 22.4 3.2
762 1 40.0 24.0 4.8
763 3 41.6 22.4 3.2
764 1 43.2 24.0 4.8
765 2 44.8 22.4 3.2
766 2 46.4 24.0 4.8
767 2 48.0 22.4 3.2
768 2 49.6 24.0 4.8
769 2 0.0 25.6 3.2
770 4 1.6 27.2 4.8
771 2 3.2 25.6 3.2
772 3 4.8 27.2 4.8
773 1 6.4 25.6 3.2
774 2 8.0 27.2 4.8
775 1 9.6 25.6 3.2
776 2 11.2 27.2 4.8
777 2 12.8 25.6 3.2
778 2 14.4 27.2 4.8
779 2 16.0 25.6 3.2
780 2 17.6 27.2 4.8
781 4 19.2 25.6 3.2
782 3 20.8 27.2 4.8
783 1 22.4 25.6 3.2
784 3 24.0 27.2 4.8
785 1 25.6 25.6 3.2
786 3 27.2 27.2 4.8
787 2 28.8 25.6 3.2
788 2 30.4 27.2 4.8
789 2 32.0 25.6 3.2
790 4 33.6 27.2 4.8
791 3 35.2 25.6 3.2
792 1 36.8 27.2 4.8
793 2 38.4 25.6 3.2
794 4 40.0 27.2 4.8
795 3 41.6 25.6 3.2
796 4 43.2 27.2 4.8
797 2 44.8 25.6 3.2
798 2 46.4 27.2 4.8
799 1 48.0 25.6 3.2
800 2 49.6 27.2 4.8
801 2 0.0 28.8 3.2
802 3 1.6 30.4 4.8
803 2 3.2 28.8 3.2
804 3 4.8 30.4 4.8
805 1 6.4 28.8 3.2
806 2 8.0 30.4 4.8
807 2 9.6 28.8 3.2
808 1 11.2 30.4 4.8
809 3 12.8 28.8 3.2
810 1 14.4 30.4 4.8
811 2 16.0 28.8 3.2
812 2 17.6 30.4 4.8
813 1 19.2 28.8 3.2
814 3 20.8 30.4 4.8
815 1 22.4 28.8 3.2
816 2 24.0 30.4 4.8
817 4 25.6 28.8 3.2
818 3 27.2 30.4 4.8
819 1 28.8 28.8 3.2
820 2 30.4 30.4 4.8
821 2 32.0 28.8 3.2
822 2 33.6 30.4 4.8
823 2 35.2 28.8 3.2
824 1 36.8 30.4 4.8
825 2 38.4 28.8 3.2
826 2 40.0 30.4 4.8
827 3 41.6 28.8 3.2
828 4 43.2 30.4 4.8
829 3 44.8 28.8 3.2
830 4 46.4 30.4 4.8
831 2 48.0 28.8 3.2
832 2 49.6 30.4 4.8
833 1 0.0 32.0 3.2
834 3 1.6 33.6 4.8
835 2 3.2 32.0 3.2
836 3 4.8 33.6 4.8
837 2 6.4 32.0 3.2
838 1 8.0 33.6 4.8
839 2 9.6 32.0 3.2
840 4 11.2 33.6 4.8
841 2 12.8 32.0 3.2
842 4 14.4 33.6 4.8
843 4 16.0 32.0 3.2
844 2 17.6 33.6 4.8
845 1 19.2 32.0 3.2
846 3 20.8 33.6 4.8
847 1 22.4 32.0 3.2
848 3 24.0 33.6 4.8
849 1 25.6 32.0 3.2
850 2 27.2 33.6 4.8
851 1 28.8 32.0 3.2
852 3 30.4 33.6 4.8
853 2 32.0 32.0 3.2
854 2 33.6 33.6 4.8
855 2 35.2 32.0 3.2
856 1 36.8 33.6 4.8
857 2 38.4 32.0 3.2
858 2 40.0 33.6 4.8
859 2 41.6 32.0 3.2
860 2 43.2 33.6 4.8
861 3 44.8 32.0 3.2
862 3 46.4 33.6 4.8
863 2 48.0 32.0 3.2
864 3 49.6 33.6 4.8
865 1 0.0 35.2 3.2
866 3 1.6 36.8 4.8
867 1 3.2 35.2 3.2
868 2 4.8 36.8 4.8
869 2 6.4 35.2 3.2
870 4 8.0 36.8 4.8
871 4 9.6 35.2 3.2
872 4 11.2 36.8 4.8
873 3 12.8 35.2 3.2
874 1 14.4 36.8 4.8
875 2 16.0 35.2 3.2
876 1 17.6 36.8 4.8
877 2 19.2 35.2 3.2
878 2 20.8 36.8 4.8
879 2 22.4 35.2 3.2
880 2 24.0 36.8 4.8
881 3 25.6 35.2 3.2
882 2 27.2 36.8 4.8
883 3 28.8 35.2 3.2
884 1 30.4 36.8 4.8
885 3 32.0 35.2 3.2
886 4 33.6 36.8 4.8
887 2 35.2 35.2 3.2
888 1 36.8 36.8 4.8
889 2 38.4 35.2 3.2
890 1 40.0 36.8 4.8
891 2 41.6 35.2 3.2
892 2 43.2 36.8 4.8
893 1 44.8 35.2 3.2
894 3 46.4 36.8 4.8
895 1 48.0 35.2 3.2
896 3 49.6 36.8 4.8
897 1 0.0 38.4 3.2
898 3 1.6 40.0 4.8
899 1 3.2 38.4 3.2
900 3 4.8 40.0 4.8
901 4 6.4 38.4 3.2
902 1 8.0 40.0 4.8
903 2 9.6 38.4 3.2
904 2 11.2 40.0 4.8
905 2 12.8 38.4 3.2
906 1 14.4 40.0 4.8
907 3 16.0 38.4 3.2
908 4 17.6 40.0 4.8
909 3 19.2 38.4 3.2
910 2 20.8 40.0 4.8
911 3 22.4 38.4 3.2
912 2 24.0 40.0 4.8
913 3 25.6 38.4 3.2
914 4 27.2 40.0 4.8
915 3 28.8 38.4 3.2
916 1 30.4 40.0 4.8
917 3 32.0 38.4 3.2
918 1 33.6 40.0 4.8
919 2 35.2 38.4 3.2
920 4 36.8 40.0 4.8
921 3 38.4 38.4 3.2
922 2 40.0 40.0 4.8
923 2 41.6 38.4 3.2
924 2 43.2 40.0 4.8
925 1 44.8 38.4 3.2
926 3 46.4 40.0 4.8
927 1 48.0 38.4 3.2
928 2 49.6 40.0 4.8
929 4 0.0 41.6 3.2
930 2 1.6 43.2 4.8
931 3 3.2 41.6 3.2
932 1 4.8 43.2 4.8
933 2 6.4 41.6 3.2
934 1 8.0 43.2 4.8
935 3 9.6 41.6 3.2
936 4 11.2 43.2 4.8
937 3 12.8 41.6 3.2
938 2 14.4 43.2 4.8
939 3 16.0 41.6 3.2
940 2 17.6 43.2 4.8
941 3 19.2 41.6 3.2
942 3 20.8 43.2 4.8
943 2 22.4 41.6 3.2
944 2 24.0 43.2 4.8
945 2 25.6 41.6 3.2
946 1 27.2 43.2 4.8
947 2 28.8 41.6 3.2
948 4 30.4 43.2 4.8
949 2 32.0 41.6 3.2
950 1 33.6 43.2 4.8
951 2 35.2 41.6 3.2
952 4 36.8 43.2 4.8
953 2 38.4 41.6 3.2
954 2 40.0 43.2 4.8
955 1 41.6 41.6 3.2
956 2 43.2 43.2 4.8
957 1 44.8 41.6 3.2
958 3 46.4 43.2 4.8
959 1 48.0 41.6 3.2
960 2 49.6 43.2 4.8
961 1 0.0 44.8 3.2
962 1 1.6 46.4 4.8
963 2 3.2 44.8 3.2
964 1 4.8 46.4 4.8
965 3 6.4 44.8 3.2
966 2 8.0 46.4 4.8
967 3 9.6 44.8 3.2
968 2 11.2 46.4 4.8
969 2 12.8 44.8 3.2
970 4 14.4 46.4 4.8
971 2 16.0 44.8 3.2
972 2 17.6 46.4 4.8
973 2 19.2 44.8 3.2
974 2 20.8 46.4 4.8
975 2 22.4 44.8 3.2
976 2 24.0 46.4 4.8
977 2 25.6 44.8 3.2
978 4 27.2 46.4 4.8
979 3 28.8 44.8 3.2
980 1 30.4 46.4 4.8
981 2 32.0 44.8 3.2
982 1 33.6 46.4 4.8
983 2 35.2 44.8 3.2
984 2 36.8 46.4 4.8
985 2 38.4 44.8 3.2
986 2 40.0 46.4 4.8
987 1 41.6 44.8 3.2
988 2 43.2 46.4 4.8
989 1 44.8 44.8 3.2
990 3 46.4 46.4 4.8
991 1 48.0 44.8 3.2
992 3 49.6 46.4 4.8
993 1 0.0 48.0 3.2
994 2 1.6 49.6 4.8
995 2 3.2 48.0 3.2
996 2 4.8 49.6 4.8
997 2 6.4 48.0 3.2
998 2 8.0 49.6 4.8
999 4 9.6 48.0 3.2
1000 2 11.2 49.6 4.8
1001 2 12.8 48.0 3.2
1002 3 14.4 49.6 4.8
1003 3 16.0 48.0 3.2
1004 2 17.6 49.6 4.8
1005 2 19.2 48.0 3.2
1006 2 20.8 49.6 4.8
1007 4 22.4 48.0 3.2
1008 2 24.0 49.6 4.8
1009 2 25.6 48.0 3.2
1010 2 27.2 49.6 4.8
1011 2 28.8 48.0 3.2
1012 1 30.4 49.6 4.8
1013 2 32.0 48.0 3.2
1014 2 33.6 49.6 4.8
1015 2 35.2 48.0 3.2
1016 2 36.8 49.6 4.8
1017 2 38.4 48.0 3.2
1018 4 40.0 49.6 4.8
1019 2 41.6 48.0 3.2
1020 2 43.2 49.6 4.8
1021 1 44.8 48.0 3.2
1022 2 46.4 49.6 4.8
1023 1 48.0 48.0 3.2
1024 3 49.6 49.6 4.8
1025 4 0.0 0.0 6.4
1026 4 1.6 1.6 8.0
1027 2 3.2 0.0 6.4
1028 2 4.8 1.6 8.0
1029 1 6.4 0.0 6.4
1030 3 8.0 1.6 8.0
1031 1 9.6 0.0 6.4
1032 3 11.2 1.6 8.0
1033 1 12.8 0.0 6.4
1034 3 14.4 1.6 8.0
1035 1 16.0 0.0 6.4
1036 3 17.6 1.6 8.0
1037 4 19.2 0.0 6.4
1038 3 20.8 1.6 8.0
1039 1 22.4 0.0 6.4
1040 3 24.0 1.6 8.0
1041 1 25.6 0.0 6.4
1042 2 27.2 1.6 8.0
1043 2 28.8 0.0 6.4
1044 2 30.4 1.6 8.0
1045 2 32.0 0.0 6.4
1046 2 33.6 1.6 8.0
1047 2 35.2 0.0 6.4
1048 3 36.8 1.6 8.0
1049 4 38.4 0.0 6.4
1050 3 40.0 1.6 8.0
1051 1 41.6 0.0 6.4
1052 3 43.2 1.6 8.0
1053 1 44.8 0.0 6.4
1054 2 46.4 1.6 8.0
1055 1 48.0 0.0 6.4
1056 2 49.6 1.6 8.0
1057 2 0.0 3.2 6.4
1058 2 1.6 4.8 8.0
1059 4 3.2 3.2 6.4
1060 2 4.8 4.8 8.0
1061 2 6.4 3.2 6.4
1062 2 8.0 4.8 8.0
1063 4 9.6 3.2 6.4
1064 2 11.2 4.8 8.0
1065 1 12.8 3.2 6.4
1066 2 14.4 4.8 8.0
1067 1 16.0 3.2 6.4
1068 2 17.6 4.8 8.0
1069 1 19.2 3.2 6.4
1070 3 20.8 4.8 8.0
1071 1 22.4 3.2 6.4
1072 3 24.0 4.8 8.0
1073 1 25.6 3.2 6.4
1074 3 27.2 4.8 8.0
1075 2 28.8 3.2 6.4
1076 3 30.4 4.8 8.0
1077 4 32.0 3.2 6.4
1078 3 33.6 4.8 8.0
1079 4 35.2 3.2 6.4
1080 3 36.8 4.8 8.0
1081 4 38.4 3.2 6.4
1082 3 40.0 4.8 8.0
1083 1 41.6 3.2 6.4
1084 2 43.2 4.8 8.0
1085 2 44.8 3.2 6.4
1086 2 46.4 4.8 8.0
1087 1 48.0 3.2 6.4
1088 3 49.6 4.8 8.0
1089 1 0.0 6.4 6.4
1090 3 1.6 8.0 8.0
1091 1 3.2 6.4 6.4
1092 3 4.8 8.0 8.0
1093 1 6.4 6.4 6.4
1094 2 8.0 8.0 8.0
1095 4 9.6 6.4 6.4
1096 2 11.2 8.0 8.0
1097 2 12.8 6.4 6.4
1098 1 14.4 8.0 8.0
1099 3 16.0 6.4 6.4
1100 1 17.6 8.0 8.0
1101 2 19.2 6.4 6.4
1102 2 20.8 8.0 8.0
1103 1 22.4 6.4 6.4
1104 2 24.0 8.0 8.0
1105 1 25.6 6.4 6.4
1106 2 27.2 8.0 8.0
1107 1 28.8 6.4 6.4
1108 2 30.4 8.0 8.0
1109 1 32.0 6.4 6.4
1110 2 33.6 8.0 8.0
1111 1 35.2 6.4 6.4
1112 2 36.8 8.0 8.0
1113 4 38.4 6.4 6.4
1114 3 40.0 8.0 8.0
1115 2 41.6 6.4 6.4
1116 3 43.2 8.0 8.0
1117 3 44.8 6.4 6.4
1118 2 46.4 8.0 8.0
1119 1 48.0 6.4 6.4
1120 3 49.6 8.0 8.0
1121 1 0.0 9.6 6.4
1122 3 1.6 11.2 8.0
1123 1 3.2 9.6 6.4
1124 3 4.8 11.2 8.0
1125 4 6.4 9.6 6.4
1126 2 8.0 11.2 8.0
1127 4 9.6 9.6 6.4
1128 2 11.2 11.2 8.0
1129 2 12.8 9.6 6.4
1130 2 14.4 11.2 8.0
1131 3 16.0 9.6 6.4
1132 1 17.6 11.2 8.0
1133 2 19.2 9.6 6.4
1134 3 20.8 11.2 8.0
1135 1 22.4 9.6 6.4
1136 3 24.0 11.2 8.0
1137 1 25.6 9.6 6.4
1138 2 27.2 11.2 8.0
1139 1 28.8 9.6 6.4
1140 2 30.4 11.2 8.0
1141 2 32.0 9.6 6.4
1142 2 33.6 11.2 8.0
1143 2 35.2 9.6 6.4
1144 2 36.8 11.2 8.0
1145 4 38.4 9.6 6.4
1146 2 40.0 11.2 8.0
1147 2 41.6 9.6 6.4
1148 2 43.2 11.2 8.0
1149 4 44.8 9.6 6.4
1150 2 46.4 11.2 8.0
1151 4 48.0 9.6 6.4
1152 2 49.6 11.2 8.0
1153 4 0.0 12.8 6.4
1154 3 1.6 14.4 8.0
1155 1 3.2 12.8 6.4
1156 2 4.8 14.4 8.0
1157 1 6.4 12.8 6.4
1158 3 8.0 14.4 8.0
1159 2 9.6 12.8 6.4
1160 2 11.2 14.4 8.0
1161 2 12.8 12.8 6.4
1162 2 14.4 14.4 8.0
1163 2 16.0 12.8 6.4
1164 2 17.6 14.4 8.0
1165 2 19.2 12.8 6.4
1166 2 20.8 14.4 8.0
1167 1 22.4 12.8 6.4
1168 2 24.0 14.4 8.0
1169 4 25.6 12.8 6.4
1170 4 27.2 14.4 8.0
1171 2 28.8 12.8 6.4
1172 4 30.4 14.4 8.0
1173 2 32.0 12.8 6.4
1174 2 33.6 14.4 8.0
1175 2 35.2 12.8 6.4
1176 1 36.8 14.4 8.0
1177 3 38.4 12.8 6.4
1178 1 40.0 14.4 8.0
1179 2 41.6 12.8 6.4
1180 1 43.2 14.4 8.0
1181 2 44.8 12.8 6.4
1182 2 46.4 14.4 8.0
1183 2 48.0 12.8 6.4
1184 3 49.6 14.4 8.0
1185 1 0.0 16.0 6.4
1186 3 1.6 17.6 8.0
1187 1 3.2 16.0 6.4
1188 2 4.8 17.6 8.0
1189 4 6.4 16.0 6.4
1190 3 8.0 17.6 8.0
1191 1 9.6 16.0 6.4
1192 2 11.2 17.6 8.0
1193 2 12.8 16.0 6.4
1194 2 14.4 17.6 8.0
1195 2 16.0 16.0 6.4
1196 2 17.6 17.6 8.0
1197 3 19.2 16.0 6.4
1198 2 20.8 17.6 8.0
1199 1 22.4 16.0 6.4
1200 3 24.0 17.6 8.0
1201 1 25.6 16.0 6.4
1202 2 27.2 17.6 8.0
1203 2 28.8 16.0 6.4
1204 1 30.4 17.6 8.0
1205 3 32.0 16.0 6.4
1206 1 33.6 17.6 8.0
1207 3 35.2 16.0 6.4
1208 2 36.8 17.6 8.0
1209 3 38.4 16.0 6.4
1210 1 40.0 17.6 8.0
1211 3 41.6 16.0 6.4
1212 4 43.2 17.6 8.0
1213 3 44.8 16.0 6.4
1214 2 46.4 17.6 8.0
1215 3 48.0 16.0 6.4
1216 3 49.6 17.6 8.0
1217 4 0.0 19.2 6.4
1218 3 1.6 20.8 8.0
1219 1 3.2 19.2 6.4
1220 3 4.8 20.8 8.0
1221 1 6.4 19.2 6.4
1222 3 8.0 20.8 8.0
1223 1 9.6 19.2 6.4
1224 3 11.2 20.8 8.0
1225 4 12.8 19.2 6.4
1226 2 14.4 20.8 8.0
1227 2 16.0 19.2 6.4
1228 2 17.6 20.8 8.0
1229 1 19.2 19.2 6.4
1230 3 20.8 20.8 8.0
1231 1 22.4 19.2 6.4
1232 2 24.0 20.8 8.0
1233 1 25.6 19.2 6.4
1234 2 27.2 20.8 8.0
1235 4 28.8 19.2 6.4
1236 2 30.4 20.8 8.0
1237 2 32.0 19.2 6.4
1238 2 33.6 20.8 8.0
1239 2 35.2 19.2 6.4
1240 3 36.8 20.8 8.0
1241 2 38.4 19.2 6.4
1242 2 40.0 20.8 8.0
1243 3 41.6 19.2 6.4
1244 3 43.2 20.8 8.0
1245 2 44.8 19.2 6.4
1246 3 46.4 20.8 8.0
1247 4 48.0 19.2 6.4
1248 2 49.6 20.8 8.0
1249 4 0.0 22.4 6.4
1250 3 1.6 24.0 8.0
1251 1 3.2 22.4 6.4
1252 3 4.8 24.0 8.0
1253 1 6.4 22.4 6.4
1254 3 8.0 24.0 8.0
1255 1 9.6 22.4 6.4
1256 2 11.2 24.0 8.0
1257 2 12.8 22.4 6.4
1258 2 14.4 24.0 8.0
1259 1 16.0 22.4 6.4
1260 3 17.6 24.0 8.0
1261 1 19.2 22.4 6.4
1262 2 20.8 24.0 8.0
1263 1 22.4 22.4 6.4
1264 2 24.0 24.0 8.0
1265 2 25.6 22.4 6.4
1266 2 27.2 24.0 8.0
1267 2 28.8 22.4 6.4
1268 4 30.4 24.0 8.0
1269 2 32.0 22.4 6.4
1270 2 33.6 24.0 8.0
1271 2 35.2 22.4 6.4
1272 2 36.8 24.0 8.0
1273 2 38.4 22.4 6.4
1274 2 40.0 24.0 8.0
1275 2 41.6 22.4 6.4
1276 2 43.2 24.0 8.0
1277 3 44.8 22.4 6.4
1278 1 46.4 24.0 8.0
1279 4 48.0 22.4 6.4
1280 2 49.6 24.0 8.0
1281 2 0.0 25.6 6.4
1282 3 1.6 27.2 8.0
1283 1 3.2 25.6 6.4
1284 3 4.8 27.2 8.0
1285 1 6.4 25.6 6.4
1286 3 8.0 27.2 8.0
1287 1 9.6 25.6 6.4
1288 2 11.2 27.2 8.0
1289 1 12.8 25.6 6.4
1290 3 14.4 27.2 8.0
1291 1 16.0 25.6 6.4
1292 2 17.6 27.2 8.0
1293 4 19.2 25.6 6.4
1294 2 20.8 27.2 8.0
1295 1 22.4 25.6 6.4
1296 3 24.0 27.2 8.0
1297 1 25.6 25.6 6.4
1298 3 27.2 27.2 8.0
1299 2 28.8 25.6 6.4
1300 2 30.4 27.2 8.0
1301 2 32.0 25.6 6.4
1302 2 33.6 27.2 8.0
1303 3 35.2 25.6 6.4
1304 2 36.8 27.2 8.0
1305 2 38.4 25.6 6.4
1306 2 40.0 27.2 8.0
1307 2 41.6 25.6 6.4
1308 2 43.2 27.2 8.0
1309 2 44.8 25.6 6.4
1310 3 46.4 27.2 8.0
1311 2 48.0 25.6 6.4
1312 4 49.6 27.2 8.0
1313 2 0.0 28.8 6.4
1314 3 1.6 30.4 8.0
1315 1 3.2 28.8 6.4
1316 3 4.8 30.4 8.0
1317 1 6.4 28.8 6.4
1318 3 8.0 30.4 8.0
1319 4 9.6 28.8 6.4
1320 1 11.2 30.4 8.0
1321 2 12.8 28.8 6.4
1322 1 14.4 30.4 8.0
1323 2 16.0 28.8 6.4
1324 4 17.6 30.4 8.0
1325 1 19.2 28.8 6.4
1326 3 20.8 30.4 8.0
1327 1 22.4 28.8 6.4
1328 2 24.0 30.4 8.0
1329 1 25.6 28.8 6.4
1330 2 27.2 30.4 8.0
1331 1 28.8 28.8 6.4
1332 2 30.4 30.4 8.0
1333 2 32.0 28.8 6.4
1334 1 33.6 30.4 8.0
1335 2 35.2 28.8 6.4
1336 4 36.8 30.4 8.0
1337 2 38.4 28.8 6.4
1338 1 40.0 30.4 8.0
1339 3 41.6 28.8 6.4
1340 2 43.2 30.4 8.0
1341 2 44.8 28.8 6.4
1342 4 46.4 30.4 8.0
1343 2 48.0 28.8 6.4
1344 3 49.6 30.4 8.0
1345 1 0.0 32.0 6.4
1346 2 1.6 33.6 8.0
1347 1 3.2 32.0 6.4
1348 4 4.8 33.6 8.0
1349 2 6.4 32.0 6.4
1350 1 8.0 33.6 8.0
1351 2 9.6 32.0 6.4
1352 2 11.2 33.6 8.0
1353 2 12.8 32.0 6.4
1354 4 14.4 33.6 8.0
1355 2 16.0 32.0 6.4
1356 2 17.6 33.6 8.0
1357 1 19.2 32.0 6.4
1358 2 20.8 33.6 8.0
1359 1 22.4 32.0 6.4
1360 2 24.0 33.6 8.0
1361 2 25.6 32.0 6.4
1362 2 27.2 33.6 8.0
1363 2 28.8 32.0 6.4
1364 2 30.4 33.6 8.0
1365 2 32.0 32.0 6.4
1366 1 33.6 33.6 8.0
1367 2 35.2 32.0 6.4
1368 1 36.8 33.6 8.0
1369 2 38.4 32.0 6.4
1370 1 40.0 33.6 8.0
1371 2 41.6 32.0 6.4
1372 1 43.2 33.6 8.0
1373 4 44.8 32.0 6.4
1374 2 46.4 33.6 8.0
1375 4 48.0 32.0 6.4
1376 3 49.6 33.6 8.0
1377 1 0.0 35.2 6.4
1378 2 1.6 36.8 8.0
1379 1 3.2 35.2 6.4
1380 2 4.8 36.8 8.0
1381 2 6.4 35.2 6.4
1382 1 8.0 36.8 8.0
1383 3 9.6 35.2 6.4
1384 1 11.2 36.8 8.0
1385 3 12.8 35.2 6.4
1386 1 14.4 36.8 8.0
1387 3 16.0 35.2 6.4
1388 1 17.6 36.8 8.0
1389 2 19.2 35.2 6.4
1390 2 20.8 36.8 8.0
1391 1 22.4 35.2 6.4
1392 3 24.0 36.8 8.0
1393 1 25.6 35.2 6.4
1394 2 27.2 36.8 8.0
1395 4 28.8 35.2 6.4
1396 4 30.4 36.8 8.0
1397 3 32.0 35.2 6.4
1398 1 33.6 36.8 8.0
1399 3 35.2 35.2 6.4
1400 1 36.8 36.8 8.0
1401 3 38.4 35.2 6.4
1402 1 40.0 36.8 8.0
1403 2 41.6 35.2 6.4
1404 2 43.2 36.8 8.0
1405 2 44.8 35.2 6.4
1406 2 46.4 36.8 8.0
1407 1 48.0 35.2 6.4
1408 2 49.6 36.8 8.0
1409 4 0.0 38.4 6.4
1410 2 1.6 40.0 8.0
1411 2 3.2 38.4 6.4
1412 3 4.8 40.0 8.0
1413 2 6.4 38.4 6.4
1414 1 8.0 40.0 8.0
1415 3 9.6 38.4 6.4
1416 1 11.2 40.0 8.0
1417 2 12.8 38.4 6.4
1418 1 14.4 40.0 8.0
1419 3 16.0 38.4 6.4
1420 1 17.6 40.0 8.0
1421 2 19.2 38.4 6.4
1422 2 20.8 40.0 8.0
1423 4 22.4 38.4 6.4
1424 2 24.0 40.0 8.0
1425 2 25.6 38.4 6.4
1426 1 27.2 40.0 8.0
1427 3 28.8 38.4 6.4
1428 1 30.4 40.0 8.0
1429 3 32.0 38.4 6.4
1430 1 33.6 40.0 8.0
1431 3 35.2 38.4 6.4
1432 1 36.8 40.0 8.0
1433 3 38.4 38.4 6.4
1434 4 40.0 40.0 8.0
1435 2 41.6 38.4 6.4
1436 4 43.2 40.0 8.0
1437 3 44.8 38.4 6.4
1438 1 46.4 40.0 8.0
1439 3 48.0 38.4 6.4
1440 1 49.6 40.0 8.0
1441 2 0.0 41.6 6.4
1442 1 1.6 43.2 8.0
1443 4 3.2 41.6 6.4
1444 4 4.8 43.2 8.0
1445 3 6.4 41.6 6.4
1446 1 8.0 43.2 8.0
1447 3 9.6 41.6 6.4
1448 4 11.2 43.2 8.0
1449 2 12.8 41.6 6.4
1450 4 14.4 43.2 8.0
1451 3 16.0 41.6 6.4
1452 2 17.6 43.2 8.0
1453 2 19.2 41.6 6.4
1454 3 20.8 43.2 8.0
1455 1 22.4 41.6 6.4
1456 3 24.0 43.2 8.0
1457 2 25.6 41.6 6.4
1458 1 27.2 43.2 8.0
1459 3 28.8 41.6 6.4
1460 1 30.4 43.2 8.0
1461 3 32.0 41.6 6.4
1462 1 33.6 43.2 8.0
1463 3 35.2 41.6 6.4
1464 4 36.8 43.2 8.0
1465 3 38.4 41.6 6.4
1466 2 40.0 43.2 8.0
1467 2 41.6 41.6 6.4
1468 2 43.2 43.2 8.0
1469 2 44.8 41.6 6.4
1470 4 46.4 43.2 8.0
1471 3 48.0 41.6 6.4
1472 4 49.6 43.2 8.0
1473 2 0.0 44.8 6.4
1474 1 1.6 46.4 8.0
1475 2 3.2 44.8 6.4
1476 2 4.8 46.4 8.0
1477 3 6.4 44.8 6.4
1478 1 8.0 46.4 8.0
1479 2 9.6 44.8 6.4
1480 2 11.2 46.4 8.0
1481 2 12.8 44.8 6.4
1482 2 14.4 46.4 8.0
1483 2 16.0 44.8 6.4
1484 2 17.6 46.4 8.0
1485 1 19.2 44.8 6.4
1486 3 20.8 46.4 8.0
1487 1 22.4 44.8 6.4
1488 3 24.0 46.4 8.0
1489 4 25.6 44.8 6.4
1490 4 27.2 46.4 8.0
1491 3 28.8 44.8 6.4
1492 1 30.4 46.4 8.0
1493 3 32.0 44.8 6.4
1494 4 33.6 46.4 8.0
1495 2 35.2 44.8 6.4
1496 4 36.8 46.4 8.0
1497 2 38.4 44.8 6.4
1498 2 40.0 46.4 8.0
1499 2 41.6 44.8 6.4
1500 4 43.2 46.4 8.0