ITEM: TIMESTEP
0
ITEM: NUMBER OF ATOMS
8192
ITEM: BOX BOUNDS pp pp pp
0.0000000000000000e+00 5.1200000000000003e+01
0.0000000000000000e+00 5.1200000000000003e+01
0.0000000000000000e+00 5.1200000000000003e+01
ITEM: ATOMS id type x y z c_eng
1 1 0 0 0 -11.828
2 3 1.6 1.6 1.6 -11.2738
3 1 3.2 0 0 -11.7819
4 2 4.8 1.6 1.6 -9.80928
5 1 6.4 0 0 -11.7552
6 2 8 1.6 1.6 -9.80859
7 1 9.6 0 0 -11.7636
8 2 11.2 1.6 1.6 -9.90179
9 2 12.8 0 0 -9.82581
10 2 14.4 1.6 1.6 -9.86774
11 2 16 0 0 -9.88406
12 2 17.6 1.6 1.6 -9.92442
13 4 19.2 0 0 -13.3934
14 2 20.8 1.6 1.6 -9.93122
15 1 22.4 0 0 -11.781
16 2 24 1.6 1.6 -9.86854
17 4 25.6 0 0 -13.3071
18 2 27.2 1.6 1.6 -9.89075
19 2 28.8 0 0 -9.92843
20 2 30.4 1.6 1.6 -9.93663
21 2 32 0 0 -9.93227
22 1 33.6 1.6 1.6 -11.7566
23 2 35.2 0 0 -9.86952
24 1 36.8 1.6 1.6 -11.7382
25 2 38.4 0 0 -9.89492
26 2 40 1.6 1.6 -9.85303
27 1 41.6 0 0 -11.8395
28 2 43.2 1.6 1.6 -9.86622
29 1 44.8 0 0 -11.8275
30 3 46.4 1.6 1.6 -11.2023
31 1 48 0 0 -11.828
32 3 49.6 1.6 1.6 -11.2394
33 1 0 3.2 0 -11.8411
34 3 1.6 4.8 1.6 -11.3373
35 1 3.2 3.2 0 -11.8348
36 2 4.8 4.8 1.6 -9.90858
37 2 6.4 3.2 0 -9.83502
38 4 8 4.8 1.6 -13.3893
39 2 9.6 3.2 0 -9.86144
40 2 11.2 4.8 1.6 -9.89721
41 2 12.8 3.2 0 -9.92862
42 1 14.4 4.8 1.6 -11.7753
43 3 16 3.2 0 -11.3807
44 1 17.6 4.8 1.6 -11.7483
45 2 19.2 3.2 0 -9.95283
46 4 20.8 4.8 1.6 -13.3666
47 2 22.4 3.2 0 -9.94159
48 2 24 4.8 1.6 -9.88366
49 2 25.6 3.2 0 -9.89141
50 2 27.2 4.8 1.6 -9.88749
51 4 28.8 3.2 0 -13.3898
52 2 30.4 4.8 1.6 -9.89348
53 2 32 3.2 0 -9.90254
54 4 33.6 4.8 1.6 -13.3122
55 2 35.2 3.2 0 -9.76197
56 2 36.8 4.8 1.6 -9.84744
57 2 38.4 3.2 0 -9.87063
58 1 40 4.8 1.6 -11.781
59 2 41.6 3.2 0 -9.81873
60 2 43.2 4.8 1.6 -9.86982
61 4 44.8 3.2 0 -13.3594
62 2 46.4 4.8 1.6 -9.8334
63 1 48 3.2 0 -11.8281
64 3 49.6 4.8 1.6 -11.2033
65 1 0 6.4 0 -11.8417
66 3 1.6 8 1.6 -11.2964
67 2 3.2 6.4 0 -9.87305
68 2 4.8 8 1.6 -9.90945
69 2 6.4 6.4 0 -9.90384
70 2 8 8 1.6 -9.883
71 2 9.6 6.4 0 -9.87875
72 2 11.2 8 1.6 -9.93929
73 2 12.8 6.4 0 -9.92284
74 1 14.4 8 1.6 -11.7578
75 2 16 6.4 0 -9.75475
76 1 17.6 8 1.6 -11.6859
77 2 19.2 6.4 0 -9.81334
78 2 20.8 8 1.6 -9.82563
79 2 22.4 6.4 0 -9.90746
80 2 24 8 1.6 -9.9016
81 2 25.6 6.4 0 -9.93682
82 2 27.2 8 1.6 -9.89917
83 2 28.8 6.4 0 -9.88099
84 1 30.4 8 1.6 -11.7477
85 2 32 6.4 0 -9.86544
86 2 33.6 8 1.6 -9.89903
87 4 35.2 6.4 0 -13.4219
88 2 36.8 8 1.6 -9.95083
89 2 38.4 6.4 0 -9.8983
90 2 40 8 1.6 -9.84176
91 4 41.6 6.4 0 -13.4446
92 2 43.2 8 1.6 -9.88969
93 2 44.8 6.4 0 -9.85122
94 3 46.4 8 1.6 -11.2663
95 1 48 6.4 0 -11.8175
96 3 49.6 8 1.6 -11.2764
97 1 0 9.6 0 -11.8282
98 2 1.6 11.2 1.6 -9.91118
99 4 3.2 9.6 0 -13.3493
100 2 4.8 11.2 1.6 -9.83995
101 2 6.4 9.6 0 -9.85494
102 2 8 11.2 1.6 -9.86965
103 4 9.6 9.6 0 -13.3694
104 4 11.2 11.2 1.6 -13.3464
105 3 12.8 9.6 0 -11.3135
106 1 14.4 11.2 1.6 -11.7488
107 2 16 9.6 0 -9.79563
108 2 17.6 11.2 1.6 -9.8086
109 2 19.2 9.6 0 -9.81354
110 2 20.8 11.2 1.6 -9.83
111 2 22.4 9.6 0 -9.89936
112 2 24 11.2 1.6 -9.90162
113 2 25.6 9.6 0 -9.92838
114 2 27.2 11.2 1.6 -9.92839
115 2 28.8 9.6 0 -9.85693
116 2 30.4 11.2 1.6 -9.87411
117 2 32 9.6 0 -9.83471
118 3 33.6 11.2 1.6 -11.4229
119 2 35.2 9.6 0 -9.91786
120 2 36.8 11.2 1.6 -9.92465
121 2 38.4 9.6 0 -9.91872
122 2 40 11.2 1.6 -9.8721
123 2 41.6 9.6 0 -9.8943
124 2 43.2 11.2 1.6 -9.88375
125 4 44.8 9.6 0 -13.3968
126 3 46.4 11.2 1.6 -11.4116
127 1 48 9.6 0 -11.8616
128 3 49.6 11.2 1.6 -11.4084
129 3 0 12.8 0 -11.4254
130 2 1.6 14.4 1.6 -9.91856
131 2 3.2 12.8 0 -9.93553
132 2 4.8 14.4 1.6 -9.91647
133 2 6.4 12.8 0 -9.87022
134 2 8 14.4 1.6 -9.84323
135 4 9.6 12.8 0 -13.3125
136 2 11.2 14.4 1.6 -9.87125
137 3 12.8 12.8 0 -11.2176
138 1 14.4 14.4 1.6 -11.7544
139 2 16 12.8 0 -9.84051
140 2 17.6 14.4 1.6 -9.81389
141 1 19.2 12.8 0 -11.7214
142 2 20.8 14.4 1.6 -9.72143
143 1 22.4 12.8 0 -11.7016
144 2 24 14.4 1.6 -9.81346
145 2 25.6 12.8 0 -9.87692
146 1 27.2 14.4 1.6 -11.7545
147 2 28.8 12.8 0 -9.86645
148 1 30.4 14.4 1.6 -11.7962
149 3 32 12.8 0 -11.2935
150 1 33.6 14.4 1.6 -11.8683
151 2 35.2 12.8 0 -9.88223
152 1 36.8 14.4 1.6 -11.7841
153 3 38.4 12.8 0 -11.3202
154 1 40 14.4 1.6 -11.791
155 2 41.6 12.8 0 -9.87877
156 1 43.2 14.4 1.6 -11.7865
157 2 44.8 12.8 0 -9.89171
158 1 46.4 14.4 1.6 -11.8364
159 3 48 12.8 0 -11.4136
160 4 49.6 14.4 1.6 -13.4357
161 3 0 16 0 -11.385
162 4 1.6 17.6 1.6 -13.3486
163 2 3.2 16 0 -9.91355
164 2 4.8 17.6 1.6 -9.91389
165 1 6.4 16 0 -11.7944
166 2 8 17.6 1.6 -9.83366
167 1 9.6 16 0 -11.7622
168 2 11.2 17.6 1.6 -9.86427
169 4 12.8 16 0 -13.3615
170 1 14.4 17.6 1.6 -11.7443
171 2 16 16 0 -9.83413
172 2 17.6 17.6 1.6 -9.86519
173 1 19.2 16 0 -11.7219
174 2 20.8 17.6 1.6 -9.83668
175 1 22.4 16 0 -11.7048
176 2 24 17.6 1.6 -9.85909
177 2 25.6 16 0 -9.81346
178 1 27.2 17.6 1.6 -11.7668
179 2 28.8 16 0 -9.80845
180 1 30.4 17.6 1.6 -11.8686
181 3 32 16 0 -11.2736
182 4 33.6 17.6 1.6 -13.3617
183 3 35.2 16 0 -11.2378
184 1 36.8 17.6 1.6 -11.826
185 3 38.4 16 0 -11.2384
186 1 40 17.6 1.6 -11.8259
187 3 41.6 16 0 -11.2384
188 1 43.2 17.6 1.6 -11.8415
189 3 44.8 16 0 -11.2039
190 1 46.4 17.6 1.6 -11.8556
191 3 48 16 0 -11.2764
192 1 49.6 17.6 1.6 -11.841
193 2 0 19.2 0 -9.77497
194 1 1.6 20.8 1.6 -11.7255
195 2 3.2 19.2 0 -9.83126
196 2 4.8 20.8 1.6 -9.81795
197 1 6.4 19.2 0 -11.7905
198 3 8 20.8 1.6 -11.2389
199 1 9.6 19.2 0 -11.8088
200 3 11.2 20.8 1.6 -11.2968
201 2 12.8 19.2 0 -9.84289
202 2 14.4 20.8 1.6 -9.86708
203 2 16 19.2 0 -9.90651
204 2 17.6 20.8 1.6 -9.8934
205 2 19.2 19.2 0 -9.81714
206 2 20.8 20.8 1.6 -9.90177
207 1 22.4 19.2 0 -11.7409
208 2 24 20.8 1.6 -9.89926
209 2 25.6 19.2 0 -9.88877
210 4 27.2 20.8 1.6 -13.3945
211 3 28.8 19.2 0 -11.3105
212 2 30.4 20.8 1.6 -9.85835
213 3 32 19.2 0 -11.3596
214 1 33.6 20.8 1.6 -11.8263
215 3 35.2 19.2 0 -11.2759
216 1 36.8 20.8 1.6 -11.8555
217 3 38.4 19.2 0 -11.2756
218 1 40 20.8 1.6 -11.8415
219 3 41.6 19.2 0 -11.2753
220 1 43.2 20.8 1.6 -11.8415
221 3 44.8 19.2 0 -11.2414
222 1 46.4 20.8 1.6 -11.8414
223 3 48 19.2 0 -11.2033
224 1 49.6 20.8 1.6 -11.7837
225 3 0 22.4 0 -11.1612
226 2 1.6 24 1.6 -9.8207
227 2 3.2 22.4 0 -9.81559
228 2 4.8 24 1.6 -9.84024
229 1 6.4 22.4 0 -11.7885
230 3 8 24 1.6 -11.3306
231 1 9.6 22.4 0 -11.8813
232 3 11.2 24 1.6 -11.3276
233 4 12.8 22.4 0 -13.4002
234 4 14.4 24 1.6 -13.3469
235 2 16 22.4 0 -9.88155
236 1 17.6 24 1.6 -11.7752
237 2 19.2 22.4 0 -9.86061
238 2 20.8 24 1.6 -9.8532
239 1 22.4 22.4 0 -11.788
240 2 24 24 1.6 -9.91495
241 3 25.6 22.4 0 -11.2974
242 4 27.2 24 1.6 -13.3932
243 2 28.8 22.4 0 -9.88707
244 2 30.4 24 1.6 -9.86171
245 2 32 22.4 0 -9.81276
246 1 33.6 24 1.6 -11.7671
247 3 35.2 22.4 0 -11.2387
248 4 36.8 24 1.6 -13.3645
249 3 38.4 22.4 0 -11.2753
250 1 40 24 1.6 -11.8555
251 3 41.6 22.4 0 -11.2414
252 1 43.2 24 1.6 -11.8572
253 3 44.8 22.4 0 -11.2417
254 1 46.4 24 1.6 -11.8306
255 3 48 22.4 0 -11.2426
256 1 49.6 24 1.6 -11.8364
257 2 0 25.6 0 -9.91254
259 2 3.2 25.6 0 -9.88897
261 2 6.4 25.6 0 -9.85356
263 2 9.6 25.6 0 -9.85825
265 2 12.8 25.6 0 -9.88394
267 2 16 25.6 0 -9.92959
269 2 19.2 25.6 0 -9.90644
271 2 22.4 25.6 0 -9.89998
273 2 25.6 25.6 0 -9.94646
275 2 28.8 25.6 0 -9.87754
277 3 32 25.6 0 -11.2266
279 3 35.2 25.6 0 -11.2736
281 3 38.4 25.6 0 -11.3094
283 3 41.6 25.6 0 -11.2394
285 3 44.8 25.6 0 -11.3047
287 3 48 25.6 0 -11.2649
258 2 1.6 27.2 1.6 -9.92609
289 2 0 28.8 0 -9.91092
260 2 4.8 27.2 1.6 -9.83806
291 4 3.2 28.8 0 -13.3523
262 2 8 27.2 1.6 -9.92083
293 1 6.4 28.8 0 -11.8212
264 2 11.2 27.2 1.6 -9.9355
295 4 9.6 28.8 0 -13.4258
266 2 14.4 27.2 1.6 -9.90044
297 4 12.8 28.8 0 -13.4202
268 4 17.6 27.2 1.6 -13.393
299 2 16 28.8 0 -9.93507
270 2 20.8 27.2 1.6 -9.89883
301 2 19.2 28.8 0 -9.89257
272 2 24 27.2 1.6 -9.92545
303 2 22.4 28.8 0 -9.94263
305 2 25.6 28.8 0 -9.93745
274 3 27.2 27.2 1.6 -11.3995
307 2 28.8 28.8 0 -9.92441
276 2 30.4 27.2 1.6 -9.89355
309 3 32 28.8 0 -11.2743
278 1 33.6 27.2 1.6 -11.8703
311 3 35.2 28.8 0 -11.3076
280 1 36.8 27.2 1.6 -11.8836
313 3 38.4 28.8 0 -11.2658
282 1 40 27.2 1.6 -11.8431
315 2 41.6 28.8 0 -9.86669
284 4 43.2 27.2 1.6 -13.3524
317 3 44.8 28.8 0 -11.3764
286 4 46.4 27.2 1.6 -13.397
319 2 48 28.8 0 -9.92631
288 4 49.6 27.2 1.6 -13.4247
290 3 1.6 30.4 1.6 -11.3537
321 4 0 32 0 -13.3919
292 3 4.8 30.4 1.6 -11.1636
323 1 3.2 32 0 -11.8025
294 3 8 30.4 1.6 -11.2949
325 1 6.4 32 0 -11.7512
296 2 11.2 30.4 1.6 -9.90344
327 1 9.6 32 0 -11.8167
298 2 14.4 30.4 1.6 -9.88703
329 1 12.8 32 0 -11.7429
300 2 17.6 30.4 1.6 -9.84322
331 1 16 32 0 -11.7498
302 2 20.8 30.4 1.6 -9.91169
333 1 19.2 32 0 -11.7736
304 2 24 30.4 1.6 -9.93337
335 2 22.4 32 0 -9.91974
337 3 25.6 32 0 -11.4008
306 2 27.2 30.4 1.6 -9.91226
339 3 28.8 32 0 -11.3338
308 1 30.4 30.4 1.6 -11.8601
341 3 32 32 0 -11.2423
310 1 33.6 30.4 1.6 -11.8548
343 3 35.2 32 0 -11.3319
312 1 36.8 30.4 1.6 -11.8731
345 2 38.4 32 0 -9.93106
314 4 40 30.4 1.6 -13.3449
347 2 41.6 32 0 -9.91666
316 1 43.2 30.4 1.6 -11.8299
349 2 44.8 32 0 -9.87967
318 2 46.4 30.4 1.6 -9.87543
351 1 48 32 0 -11.8046
320 3 49.6 30.4 1.6 -11.3692
322 3 1.6 33.6 1.6 -11.3562
353 4 0 35.2 0 -13.4203
324 2 4.8 33.6 1.6 -9.78122
355 4 3.2 35.2 0 -13.3541
326 2 8 33.6 1.6 -9.86184
357 1 6.4 35.2 0 -11.8344
328 2 11.2 33.6 1.6 -9.86493
359 2 9.6 35.2 0 -9.82738
330 2 14.4 33.6 1.6 -9.83672
361 1 12.8 35.2 0 -11.7699
332 2 17.6 33.6 1.6 -9.85997
363 2 16 35.2 0 -9.87742
334 2 20.8 33.6 1.6 -9.94096
365 2 19.2 35.2 0 -9.90534
336 2 24 33.6 1.6 -9.9188
367 2 22.4 35.2 0 -9.92946
369 2 25.6 35.2 0 -9.8335
338 4 27.2 33.6 1.6 -13.448
371 3 28.8 35.2 0 -11.2734
340 1 30.4 33.6 1.6 -11.8552
373 3 32 35.2 0 -11.1648
342 1 33.6 33.6 1.6 -11.8137
375 2 35.2 35.2 0 -9.80804
344 2 36.8 33.6 1.6 -9.86484
377 2 38.4 35.2 0 -9.90162
346 2 40 33.6 1.6 -9.90931
379 2 41.6 35.2 0 -9.88879
348 2 43.2 33.6 1.6 -9.90023
381 1 44.8 35.2 0 -11.8363
350 2 46.4 33.6 1.6 -9.81213
383 1 48 35.2 0 -11.799
352 3 49.6 33.6 1.6 -11.291
354 3 1.6 36.8 1.6 -11.4429
385 1 0 38.4 0 -11.8569
356 3 4.8 36.8 1.6 -11.3372
387 1 3.2 38.4 0 -11.8958
358 2 8 36.8 1.6 -9.90852
389 1 6.4 38.4 0 -11.7865
360 2 11.2 36.8 1.6 -9.93223
391 2 9.6 38.4 0 -9.85956
362 2 14.4 36.8 1.6 -9.94216
393 2 12.8 38.4 0 -9.95231
364 4 17.6 36.8 1.6 -13.4685
395 3 16 38.4 0 -11.432
366 2 20.8 36.8 1.6 -9.90658
397 3 19.2 38.4 0 -11.3913
368 2 24 36.8 1.6 -9.88529
399 3 22.4 38.4 0 -11.3321
401 3 25.6 38.4 0 -11.2715
370 4 27.2 36.8 1.6 -13.3556
403 3 28.8 38.4 0 -11.2402
372 1 30.4 36.8 1.6 -11.8279
405 3 32 38.4 0 -11.1657
374 1 33.6 36.8 1.6 -11.7493
407 2 35.2 38.4 0 -9.75483
376 1 36.8 36.8 1.6 -11.7068
409 2 38.4 38.4 0 -9.81368
378 1 40 36.8 1.6 -11.7571
411 2 41.6 38.4 0 -9.88133
380 2 43.2 36.8 1.6 -9.88151
413 4 44.8 38.4 0 -13.3771
382 3 46.4 36.8 1.6 -11.2575
415 1 48 38.4 0 -11.8254
384 2 49.6 36.8 1.6 -9.85802
386 3 1.6 40 1.6 -11.393
417 1 0 41.6 0 -11.8696
388 3 4.8 40 1.6 -11.3705
419 4 3.2 41.6 0 -13.3628
390 2 8 40 1.6 -9.86577
421 1 6.4 41.6 0 -11.7952
392 3 11.2 40 1.6 -11.3932
423 1 9.6 41.6 0 -11.7587
394 2 14.4 40 1.6 -9.93999
425 2 12.8 41.6 0 -9.8712
396 2 17.6 40 1.6 -9.85535
427 3 16 41.6 0 -11.3256
398 1 20.8 40 1.6 -11.834
429 3 19.2 41.6 0 -11.309
400 1 24 40 1.6 -11.8205
431 3 22.4 41.6 0 -11.3052
433 3 25.6 41.6 0 -11.3072
402 1 27.2 40 1.6 -11.7859
435 3 28.8 41.6 0 -11.3323
404 1 30.4 40 1.6 -11.8252
437 3 32 41.6 0 -11.3549
406 1 33.6 40 1.6 -11.7999
439 2 35.2 41.6 0 -9.8987
408 4 36.8 40 1.6 -13.3066
441 2 38.4 41.6 0 -9.90838
410 4 40 40 1.6 -13.3321
443 2 41.6 41.6 0 -9.85895
412 2 43.2 40 1.6 -9.92742
445 4 44.8 41.6 0 -13.4055
414 3 46.4 40 1.6 -11.3656
447 1 48 41.6 0 -11.8554
416 3 49.6 40 1.6 -11.2691
418 3 1.6 43.2 1.6 -11.2733
449 1 0 44.8 0 -11.8413
420 3 4.8 43.2 1.6 -11.365
451 1 3.2 44.8 0 -11.8418
422 2 8 43.2 1.6 -9.83422
453 1 6.4 44.8 0 -11.7857
424 2 11.2 43.2 1.6 -9.84279
455 1 9.6 44.8 0 -11.7388
426 2 14.4 43.2 1.6 -9.89279
457 4 12.8 44.8 0 -13.3176
428 1 17.6 43.2 1.6 -11.8045
459 2 16 44.8 0 -9.88178
430 4 20.8 43.2 1.6 -13.3989
461 3 19.2 44.8 0 -11.3267
432 2 24 43.2 1.6 -9.84843
463 3 22.4 44.8 0 -11.3775
465 2 25.6 44.8 0 -9.93757
434 1 27.2 43.2 1.6 -11.8405
467 2 28.8 44.8 0 -9.94609
436 4 30.4 43.2 1.6 -13.3977
469 2 32 44.8 0 -9.88225
438 2 33.6 43.2 1.6 -9.89427
471 4 35.2 44.8 0 -13.4709
440 2 36.8 43.2 1.6 -9.93813
473 2 38.4 44.8 0 -9.88481
442 4 40 43.2 1.6 -13.3678
475 1 41.6 44.8 0 -11.8334
444 2 43.2 43.2 1.6 -9.86882
477 4 44.8 44.8 0 -13.3333
446 3 46.4 43.2 1.6 -11.2688
479 1 48 44.8 0 -11.8438
448 3 49.6 43.2 1.6 -11.2761
450 3 1.6 46.4 1.6 -11.2722
481 1 0 48 0 -11.842
452 3 4.8 46.4 1.6 -11.4032
483 4 3.2 48 0 -13.3761
454 2 8 46.4 1.6 -9.94539
485 2 6.4 48 0 -9.8969
456 2 11.2 46.4 1.6 -9.87502
487 2 9.6 48 0 -9.83556
458 3 14.4 46.4 1.6 -11.3525
489 4 12.8 48 0 -13.3757
460 2 17.6 46.4 1.6 -9.9084
491 2 16 48 0 -9.90872
462 2 20.8 46.4 1.6 -9.90718
493 2 19.2 48 0 -9.89869
464 2 24 46.4 1.6 -9.89682
495 4 22.4 48 0 -13.3814
497 2 25.6 48 0 -9.86878
466 2 27.2 46.4 1.6 -9.92304
499 2 28.8 48 0 -9.88307
468 2 30.4 46.4 1.6 -9.9068
501 1 32 48 0 -11.7962
470 3 33.6 46.4 1.6 -11.309
503 2 35.2 48 0 -9.8421
472 2 36.8 46.4 1.6 -9.91112
505 2 38.4 48 0 -9.90547
474 2 40 46.4 1.6 -9.89703
507 4 41.6 48 0 -13.4047
476 3 43.2 46.4 1.6 -11.3249
509 1 44.8 48 0 -11.8728
478 2 46.4 46.4 1.6 -9.8619
511 4 48 48 0 -13.3395
480 3 49.6 46.4 1.6 -11.2369
482 3 1.6 49.6 1.6 -11.2687
484 3 4.8 49.6 1.6 -11.3762
486 3 8 49.6 1.6 -11.3495
488 2 11.2 49.6 1.6 -9.79472
490 1 14.4 49.6 1.6 -11.7135
492 2 17.6 49.6 1.6 -9.86562
494 2 20.8 49.6 1.6 -9.8973
496 2 24 49.6 1.6 -9.79663
498 2 27.2 49.6 1.6 -9.88074
500 2 30.4 49.6 1.6 -9.90147
502 2 33.6 49.6 1.6 -9.89072
504 2 36.8 49.6 1.6 -9.85891
506 2 40 49.6 1.6 -9.91681
508 3 43.2 49.6 1.6 -11.3262
510 3 46.4 49.6 1.6 -11.2702
512 2 49.6 49.6 1.6 -9.83331
513 4 0 0 3.2 -13.3136
514 3 1.6 1.6 4.8 -11.2733
515 1 3.2 0 3.2 -11.8283
516 3 4.8 1.6 4.8 -11.2345
517 1 6.4 0 3.2 -11.8214
518 2 8 1.6 4.8 -9.83737
519 1 9.6 0 3.2 -11.7329
520 2 11.2 1.6 4.8 -9.8432
521 2 12.8 0 3.2 -9.80153
522 2 14.4 1.6 4.8 -9.84193
523 1 16 0 3.2 -11.7582
524 3 17.6 1.6 4.8 -11.3269
525 4 19.2 0 3.2 -13.392
526 3 20.8 1.6 4.8 -11.4133
527 2 22.4 0 3.2 -9.82301
528 3 24 1.6 4.8 -11.2997
529 1 25.6 0 3.2 -11.7467
530 3 27.2 1.6 4.8 -11.2643
531 2 28.8 0 3.2 -9.90511
532 3 30.4 1.6 4.8 -11.4018
533 2 32 0 3.2 -9.88201
534 2 33.6 1.6 4.8 -9.90125
535 2 35.2 0 3.2 -9.8721
536 2 36.8 1.6 4.8 -9.89921
537 2 38.4 0 3.2 -9.88479
538 2 40 1.6 4.8 -9.92675
539 2 41.6 0 3.2 -9.88547
540 2 43.2 1.6 4.8 -9.85925
541 1 44.8 0 3.2 -11.8016
542 3 46.4 1.6 4.8 -11.2042
543 1 48 0 3.2 -11.8436
544 3 49.6 1.6 4.8 -11.2759
545 1 0 3.2 3.2 -11.8697
546 3 1.6 4.8 4.8 -11.2727
547 4 3.2 3.2 3.2 -13.3586
548 2 4.8 4.8 4.8 -9.86121
549 2 6.4 3.2 3.2 -9.86144
550 2 8 4.8 4.8 -9.83539
551 2 9.6 3.2 3.2 -9.91578
552 2 11.2 4.8 4.8 -9.89522
553 2 12.8 3.2 3.2 -9.92314
554 2 14.4 4.8 4.8 -9.87201
555 2 16 3.2 3.2 -9.85445
556 2 17.6 4.8 4.8 -9.88351
557 2 19.2 3.2 3.2 -9.9029
558 2 20.8 4.8 4.8 -9.86637
559 2 22.4 3.2 3.2 -9.85493
560 3 24 4.8 4.8 -11.1951
561 1 25.6 3.2 3.2 -11.7932
562 2 27.2 4.8 4.8 -9.84146
563 2 28.8 3.2 3.2 -9.88399
564 2 30.4 4.8 4.8 -9.92304
565 2 32 3.2 3.2 -9.89676
566 1 33.6 4.8 4.8 -11.7907
567 2 35.2 3.2 3.2 -9.84369
568 2 36.8 4.8 4.8 -9.92789
569 2 38.4 3.2 3.2 -9.86572
570 2 40 4.8 4.8 -9.88822
571 2 41.6 3.2 3.2 -9.89185
572 3 43.2 4.8 4.8 -11.3218
573 1 44.8 3.2 3.2 -11.7905
574 3 46.4 4.8 4.8 -11.24
575 1 48 3.2 3.2 -11.8121
576 3 49.6 4.8 4.8 -11.2417
577 1 0 6.4 3.2 -11.8695
578 3 1.6 8 4.8 -11.3097
579 4 3.2 6.4 3.2 -13.4081
580 3 4.8 8 4.8 -11.235
581 2 6.4 6.4 3.2 -9.86132
582 2 8 8 4.8 -9.81286
583 2 9.6 6.4 3.2 -9.93669
584 2 11.2 8 4.8 -9.93335
585 3 12.8 6.4 3.2 -11.3827
586 2 14.4 8 4.8 -9.90879
587 2 16 6.4 3.2 -9.80312
588 4 17.6 8 4.8 -13.3637
589 2 19.2 6.4 3.2 -9.81435
590 2 20.8 8 4.8 -9.85394
591 1 22.4 6.4 3.2 -11.744
592 2 24 8 4.8 -9.79036
593 1 25.6 6.4 3.2 -11.7545
594 2 27.2 8 4.8 -9.84347
595 2 28.8 6.4 3.2 -9.8994
596 2 30.4 8 4.8 -9.83488
597 2 32 6.4 3.2 -9.87055
598 2 33.6 8 4.8 -9.91117
599 2 35.2 6.4 3.2 -9.91155
600 3 36.8 8 4.8 -11.3422
601 2 38.4 6.4 3.2 -9.88892
602 2 40 8 4.8 -9.8069
603 2 41.6 6.4 3.2 -9.84148
604 2 43.2 8 4.8 -9.74875
605 4 44.8 6.4 3.2 -13.3587
606 3 46.4 8 4.8 -11.2403
607 1 48 6.4 3.2 -11.828
608 3 49.6 8 4.8 -11.2753
609 4 0 9.6 3.2 -13.3581
610 3 1.6 11.2 4.8 -11.2663
611 1 3.2 9.6 3.2 -11.8157
612 3 4.8 11.2 4.8 -11.2333
613 1 6.4 9.6 3.2 -11.7836
614 2 8 11.2 4.8 -9.84063
615 2 9.6 9.6 3.2 -9.8703
616 2 11.2 11.2 4.8 -9.93689
617 2 12.8 9.6 3.2 -9.92819
618 2 14.4 11.2 4.8 -9.89294
619 2 16 9.6 3.2 -9.84047
620 4 17.6 11.2 4.8 -13.4298
621 2 19.2 9.6 3.2 -9.90676
622 2 20.8 11.2 4.8 -9.90156
623 2 22.4 9.6 3.2 -9.83965
624 2 24 11.2 4.8 -9.87022
625 2 25.6 9.6 3.2 -9.88312
626 2 27.2 11.2 4.8 -9.88095
627 2 28.8 9.6 3.2 -9.87418
628 2 30.4 11.2 4.8 -9.92291
629 4 32 9.6 3.2 -13.4075
630 3 33.6 11.2 4.8 -11.4101
631 2 35.2 9.6 3.2 -9.91563
632 2 36.8 11.2 4.8 -9.90232
633 1 38.4 9.6 3.2 -11.7647
634 2 40 11.2 4.8 -9.82586
635 1 41.6 9.6 3.2 -11.7051
636 2 43.2 11.2 4.8 -9.80371
637 1 44.8 9.6 3.2 -11.7953
638 3 46.4 11.2 4.8 -11.3583
639 1 48 9.6 3.2 -11.8688
640 3 49.6 11.2 4.8 -11.3664
641 4 0 12.8 3.2 -13.4586
642 2 1.6 14.4 4.8 -9.88879
643 4 3.2 12.8 3.2 -13.3494
644 3 4.8 14.4 4.8 -11.3235
645 4 6.4 12.8 3.2 -13.375
646 4 8 14.4 4.8 -13.4013
647 2 9.6 12.8 3.2 -9.90079
648 2 11.2 14.4 4.8 -9.91299
649 2 12.8 12.8 3.2 -9.90968
650 4 14.4 14.4 4.8 -13.3368
651 2 16 12.8 3.2 -9.84333
652 2 17.6 14.4 4.8 -9.90043
653 4 19.2 12.8 3.2 -13.344
654 3 20.8 14.4 4.8 -11.336
655 1 22.4 12.8 3.2 -11.7831
656 2 24 14.4 4.8 -9.90495
657 2 25.6 12.8 3.2 -9.88086
658 4 27.2 14.4 4.8 -13.3899
659 2 28.8 12.8 3.2 -9.90756
660 4 30.4 14.4 4.8 -13.3974
661 3 32 12.8 3.2 -11.4248
662 1 33.6 14.4 4.8 -11.8153
663 3 35.2 12.8 3.2 -11.3948
664 1 36.8 14.4 4.8 -11.7656
665 2 38.4 12.8 3.2 -9.86769
666 2 40 14.4 4.8 -9.83708
667 2 41.6 12.8 3.2 -9.86687
668 1 43.2 14.4 4.8 -11.8357
669 3 44.8 12.8 3.2 -11.3019
670 4 46.4 14.4 4.8 -13.4105
671 4 48 12.8 3.2 -13.4486
672 2 49.6 14.4 4.8 -9.88503
673 3 0 16 3.2 -11.3478
674 4 1.6 17.6 4.8 -13.331
675 4 3.2 16 3.2 -13.4023
676 3 4.8 17.6 4.8 -11.3788
677 2 6.4 16 3.2 -9.87967
678 3 8 17.6 4.8 -11.3147
679 2 9.6 16 3.2 -9.88779
680 2 11.2 17.6 4.8 -9.88082
681 3 12.8 16 3.2 -11.2929
682 2 14.4 17.6 4.8 -9.88145
683 2 16 16 3.2 -9.86276
684 2 17.6 17.6 4.8 -9.89281
685 4 19.2 16 3.2 -13.365
686 2 20.8 17.6 4.8 -9.86455
687 2 22.4 16 3.2 -9.82902
688 2 24 17.6 4.8 -9.88046
689 2 25.6 16 3.2 -9.92721
690 2 27.2 17.6 4.8 -9.86813
691 3 28.8 16 3.2 -11.2504
692 2 30.4 17.6 4.8 -9.84276
693 3 32 16 3.2 -11.3373
694 1 33.6 17.6 4.8 -11.7918
695 3 35.2 16 3.2 -11.1999
696 1 36.8 17.6 4.8 -11.7196
697 2 38.4 16 3.2 -9.74911
698 1 40 17.6 4.8 -11.8141
699 3 41.6 16 3.2 -11.2389
700 1 43.2 17.6 4.8 -11.8276
701 3 44.8 16 3.2 -11.2737
702 4 46.4 17.6 4.8 -13.3817
703 3 48 16 3.2 -11.3329
704 1 49.6 17.6 4.8 -11.8386
705 3 0 19.2 3.2 -11.2307
706 2 1.6 20.8 4.8 -9.7865
707 2 3.2 19.2 3.2 -9.84513
708 3 4.8 20.8 4.8 -11.2998
709 2 6.4 19.2 3.2 -9.84058
710 3 8 20.8 4.8 -11.3048
711 1 9.6 19.2 3.2 -11.8183
712 2 11.2 20.8 4.8 -9.8435
713 2 12.8 19.2 3.2 -9.84559
714 2 14.4 20.8 4.8 -9.86953
715 4 16 19.2 3.2 -13.3705
716 2 17.6 20.8 4.8 -9.90538
717 2 19.2 19.2 3.2 -9.88307
718 2 20.8 20.8 4.8 -9.88613
719 2 22.4 19.2 3.2 -9.88925
720 2 24 20.8 4.8 -9.85865
721 2 25.6 19.2 3.2 -9.88092
722 2 27.2 20.8 4.8 -9.83933
723 2 28.8 19.2 3.2 -9.89518
724 4 30.4 20.8 4.8 -13.4015
725 3 32 19.2 3.2 -11.3613
726 2 33.6 20.8 4.8 -9.77753
727 3 35.2 19.2 3.2 -11.3076
728 1 36.8 20.8 4.8 -11.8419
729 3 38.4 19.2 3.2 -11.2039
730 1 40 20.8 4.8 -11.8555
731 3 41.6 19.2 3.2 -11.2417
732 1 43.2 20.8 4.8 -11.8414
733 3 44.8 19.2 3.2 -11.2759
734 1 46.4 20.8 4.8 -11.8314
735 3 48 19.2 3.2 -11.2767
736 1 49.6 20.8 4.8 -11.7709
737 2 0 22.4 3.2 -9.86003
738 3 1.6 24 4.8 -11.3788
739 1 3.2 22.4 3.2 -11.7385
740 3 4.8 24 4.8 -11.2402
741 1 6.4 22.4 3.2 -11.8254
742 3 8 24 4.8 -11.3095
743 1 9.6 22.4 3.2 -11.827
744 3 11.2 24 4.8 -11.2926
745 1 12.8 22.4 3.2 -11.7966
746 2 14.4 24 4.8 -9.92306
747 2 16 22.4 3.2 -9.85541
748 2 17.6 24 4.8 -9.86183
749 2 19.2 22.4 3.2 -9.90826
750 1 20.8 24 4.8 -11.7574
751 2 22.4 22.4 3.2 -9.88093
752 4 24 24 4.8 -13.3356
753 2 25.6 22.4 3.2 -9.90739
754 4 27.2 24 4.8 -13.3394
755 2 28.8 22.4 3.2 -9.88904
756 2 30.4 24 4.8 -9.83552
757 4 32 22.4 3.2 -13.3155
758 1 33.6 24 4.8 -11.7807
759 3 35.2 22.4 3.2 -11.2708
760 1 36.8 24 4.8 -11.8836
761 3 38.4 22.4 3.2 -11.2753
762 1 40 24 4.8 -11.8568
763 3 41.6 22.4 3.2 -11.3083
764 2 43.2 24 4.8 -9.85667
765 3 44.8 22.4 3.2 -11.3021
766 2 46.4 24 4.8 -9.82166
767 3 48 22.4 3.2 -11.2312
768 2 49.6 24 4.8 -9.86856
769 3 0 25.6 3.2 -11.3915
771 1 3.2 25.6 3.2 -11.8177
773 4 6.4 25.6 3.2 -13.3334
775 1 9.6 25.6 3.2 -11.863
777 4 12.8 25.6 3.2 -13.3744
779 2 16 25.6 3.2 -9.88167
781 2 19.2 25.6 3.2 -9.86854
783 2 22.4 25.6 3.2 -9.90258
785 2 25.6 25.6 3.2 -9.89845
787 2 28.8 25.6 3.2 -9.93263
789 2 32 25.6 3.2 -9.88123
791 3 35.2 25.6 3.2 -11.3349
793 3 38.4 25.6 3.2 -11.3091
795 3 41.6 25.6 3.2 -11.3319
797 2 44.8 25.6 3.2 -9.8902
799 2 48 25.6 3.2 -9.89041
770 3 1.6 27.2 4.8 -11.4058
801 2 0 28.8 3.2 -9.93446
772 3 4.8 27.2 4.8 -11.3048
803 1 3.2 28.8 3.2 -11.8391
774 3 8 27.2 4.8 -11.3546
805 1 6.4 28.8 3.2 -11.8497
776 2 11.2 27.2 4.8 -9.92597
807 3 9.6 28.8 3.2 -11.3544
778 2 14.4 27.2 4.8 -9.94482
809 2 12.8 28.8 3.2 -9.94937
780 2 17.6 27.2 4.8 -9.87892
811 2 16 28.8 3.2 -9.89209
782 2 20.8 27.2 4.8 -9.85443
813 4 19.2 28.8 3.2 -13.3967
784 2 24 27.2 4.8 -9.86022
815 4 22.4 28.8 3.2 -13.3619
817 1 25.6 28.8 3.2 -11.7782
786 2 27.2 27.2 4.8 -9.88905
819 2 28.8 28.8 3.2 -9.94011
788 2 30.4 27.2 4.8 -9.90822
821 3 32 28.8 3.2 -11.3836
790 2 33.6 27.2 4.8 -9.84657
823 3 35.2 28.8 3.2 -11.3935
792 4 36.8 27.2 4.8 -13.3996
825 3 38.4 28.8 3.2 -11.3604
794 1 40 27.2 4.8 -11.8554
827 3 41.6 28.8 3.2 -11.3786
796 2 43.2 27.2 4.8 -9.89545
829 2 44.8 28.8 3.2 -9.93192
798 2 46.4 27.2 4.8 -9.86019
831 2 48 28.8 3.2 -9.91545
800 2 49.6 27.2 4.8 -9.93898
802 3 1.6 30.4 4.8 -11.3571
833 4 0 32 3.2 -13.4394
804 3 4.8 30.4 4.8 -11.3336
835 1 3.2 32 3.2 -11.7637
806 3 8 30.4 4.8 -11.5047
837 1 6.4 32 3.2 -11.8381
808 2 11.2 30.4 4.8 -9.94792
839 4 9.6 32 3.2 -13.4381
810 2 14.4 30.4 4.8 -9.94341
841 2 12.8 32 3.2 -9.88459
812 2 17.6 30.4 4.8 -9.89402
843 4 16 32 3.2 -13.3937
814 2 20.8 30.4 4.8 -9.87083
845 2 19.2 32 3.2 -9.83939
816 2 24 30.4 4.8 -9.84735
847 2 22.4 32 3.2 -9.90627
849 2 25.6 32 3.2 -9.95924
818 2 27.2 30.4 4.8 -9.89249
851 3 28.8 32 3.2 -11.3832
820 4 30.4 30.4 4.8 -13.3715
853 3 32 32 3.2 -11.274
822 4 33.6 30.4 4.8 -13.4255
855 3 35.2 32 3.2 -11.3557
824 2 36.8 30.4 4.8 -9.89387
857 2 38.4 32 3.2 -9.96662
826 2 40 30.4 4.8 -9.92611
859 2 41.6 32 3.2 -9.911
828 2 43.2 30.4 4.8 -9.9027
861 2 44.8 32 3.2 -9.86701
830 2 46.4 30.4 4.8 -9.90634
863 1 48 32 3.2 -11.7498
832 2 49.6 30.4 4.8 -9.93275
834 2 1.6 33.6 4.8 -9.85609
865 2 0 35.2 3.2 -9.88046
836 2 4.8 33.6 4.8 -9.85043
867 1 3.2 35.2 3.2 -11.8478
838 3 8 33.6 4.8 -11.4576
869 2 6.4 35.2 3.2 -9.82485
840 2 11.2 33.6 4.8 -9.89483
871 2 9.6 35.2 3.2 -9.93265
842 2 14.4 33.6 4.8 -9.92634
873 2 12.8 35.2 3.2 -9.92312
844 2 17.6 33.6 4.8 -9.89141
875 2 16 35.2 3.2 -9.89338
846 2 20.8 33.6 4.8 -9.90154
877 2 19.2 35.2 3.2 -9.95698
848 2 24 33.6 4.8 -9.92633
879 2 22.4 35.2 3.2 -9.96955
881 2 25.6 35.2 3.2 -9.9276
850 2 27.2 33.6 4.8 -9.89315
883 3 28.8 35.2 3.2 -11.2964
852 1 30.4 33.6 4.8 -11.804
885 3 32 35.2 3.2 -11.2394
854 1 33.6 33.6 4.8 -11.765
887 2 35.2 35.2 3.2 -9.82146
856 2 36.8 33.6 4.8 -9.88456
889 2 38.4 35.2 3.2 -9.85846
858 2 40 33.6 4.8 -9.922
891 2 41.6 35.2 3.2 -9.91181
860 4 43.2 33.6 4.8 -13.367
893 2 44.8 35.2 3.2 -9.85085
862 4 46.4 33.6 4.8 -13.3042
895 1 48 35.2 3.2 -11.7363
864 2 49.6 33.6 4.8 -9.88226
866 3 1.6 36.8 4.8 -11.4227
897 2 0 38.4 3.2 -9.89568
868 3 4.8 36.8 4.8 -11.3826
899 2 3.2 38.4 3.2 -9.83163
870 2 8 36.8 4.8 -9.92319
901 1 6.4 38.4 3.2 -11.8576
872 1 11.2 36.8 4.8 -11.7934
903 2 9.6 38.4 3.2 -9.89804
874 2 14.4 36.8 4.8 -9.90435
905 3 12.8 38.4 3.2 -11.3928
876 2 17.6 36.8 4.8 -9.88206
907 2 16 38.4 3.2 -9.97013
878 2 20.8 36.8 4.8 -9.95697
909 2 19.2 38.4 3.2 -9.9283
880 2 24 36.8 4.8 -9.92728
911 2 22.4 38.4 3.2 -9.92614
913 2 25.6 38.4 3.2 -9.88852
882 4 27.2 36.8 4.8 -13.4018
915 2 28.8 38.4 3.2 -9.80623
884 1 30.4 36.8 4.8 -11.8285
917 3 32 38.4 3.2 -11.2977
886 2 33.6 36.8 4.8 -9.83025
919 2 35.2 38.4 3.2 -9.83395
888 4 36.8 36.8 4.8 -13.3429
921 2 38.4 38.4 3.2 -9.83527
890 2 40 36.8 4.8 -9.83078
923 2 41.6 38.4 3.2 -9.88682
892 4 43.2 36.8 4.8 -13.338
925 2 44.8 38.4 3.2 -9.85799
894 2 46.4 36.8 4.8 -9.84864
927 1 48 38.4 3.2 -11.8036
896 2 49.6 36.8 4.8 -9.87904
898 2 1.6 40 4.8 -9.93053
929 4 0 41.6 3.2 -13.3813
900 3 4.8 40 4.8 -11.4352
931 1 3.2 41.6 3.2 -11.8945
902 2 8 40 4.8 -9.87255
933 2 6.4 41.6 3.2 -9.86738
904 1 11.2 40 4.8 -11.773
935 2 9.6 41.6 3.2 -9.88295
906 1 14.4 40 4.8 -11.8273
937 2 12.8 41.6 3.2 -9.87571
908 2 17.6 40 4.8 -9.87026
939 2 16 41.6 3.2 -9.89254
910 2 20.8 40 4.8 -9.8802
941 2 19.2 41.6 3.2 -9.87023
912 2 24 40 4.8 -9.8843
943 2 22.4 41.6 3.2 -9.88567
945 2 25.6 41.6 3.2 -9.88721
914 4 27.2 40 4.8 -13.3959
947 3 28.8 41.6 3.2 -11.2306
916 1 30.4 40 4.8 -11.7977
949 3 32 41.6 3.2 -11.3002
918 2 33.6 40 4.8 -9.82444
951 2 35.2 41.6 3.2 -9.91541
920 2 36.8 40 4.8 -9.92843
953 2 38.4 41.6 3.2 -9.92523
922 2 40 40 4.8 -9.89404
955 2 41.6 41.6 3.2 -9.89896
924 2 43.2 40 4.8 -9.86324
957 4 44.8 41.6 3.2 -13.3777
926 3 46.4 40 4.8 -11.228
959 1 48 41.6 3.2 -11.8414
928 2 49.6 40 4.8 -9.88682
930 2 1.6 43.2 4.8 -9.86661
961 1 0 44.8 3.2 -11.8287
932 3 4.8 43.2 4.8 -11.4174
963 1 3.2 44.8 3.2 -11.829
934 4 8 43.2 4.8 -13.4221
965 2 6.4 44.8 3.2 -9.93511
936 1 11.2 43.2 4.8 -11.7466
967 2 9.6 44.8 3.2 -9.84086
938 2 14.4 43.2 4.8 -9.79512
969 4 12.8 44.8 3.2 -13.4238
940 1 17.6 43.2 4.8 -11.759
971 2 16 44.8 3.2 -9.90088
942 2 20.8 43.2 4.8 -9.83221
973 2 19.2 44.8 3.2 -9.88511
944 2 24 43.2 4.8 -9.9231
975 2 22.4 44.8 3.2 -9.91387
977 2 25.6 44.8 3.2 -9.91253
946 2 27.2 43.2 4.8 -9.87586
979 2 28.8 44.8 3.2 -9.92282
948 1 30.4 43.2 4.8 -11.7747
981 2 32 44.8 3.2 -9.90317
950 1 33.6 43.2 4.8 -11.7985
983 2 35.2 44.8 3.2 -9.89167
952 2 36.8 43.2 4.8 -9.89923
985 2 38.4 44.8 3.2 -9.84414
954 2 40 43.2 4.8 -9.90455
987 4 41.6 44.8 3.2 -13.3666
956 2 43.2 43.2 4.8 -9.88689
989 1 44.8 44.8 3.2 -11.8179
958 3 46.4 43.2 4.8 -11.2408
991 1 48 44.8 3.2 -11.8273
960 3 49.6 43.2 4.8 -11.2977
962 2 1.6 46.4 4.8 -9.86378
993 1 0 48 3.2 -11.8179
964 2 4.8 46.4 4.8 -9.98594
995 4 3.2 48 3.2 -13.411
966 3 8 46.4 4.8 -11.4196
997 3 6.4 48 3.2 -11.4069
968 3 11.2 46.4 4.8 -11.2865
999 1 9.6 48 3.2 -11.8401
970 3 14.4 46.4 4.8 -11.3988
1001 4 12.8 48 3.2 -13.3262
972 2 17.6 46.4 4.8 -9.8865
1003 2 16 48 3.2 -9.84164
974 2 20.8 46.4 4.8 -9.83919
1005 4 19.2 48 3.2 -13.399
976 2 24 46.4 4.8 -9.80998
1007 4 22.4 48 3.2 -13.3112
1009 1 25.6 48 3.2 -11.7482
978 3 27.2 46.4 4.8 -11.3332
1011 2 28.8 48 3.2 -9.85384
980 2 30.4 46.4 4.8 -9.90543
1013 1 32 48 3.2 -11.7971
982 2 33.6 46.4 4.8 -9.85795
1015 1 35.2 48 3.2 -11.7791
984 2 36.8 46.4 4.8 -9.84769
1017 1 38.4 48 3.2 -11.7486
986 2 40 46.4 4.8 -9.88999
1019 2 41.6 48 3.2 -9.87628
988 3 43.2 46.4 4.8 -11.3809
1021 4 44.8 48 3.2 -13.3725
990 3 46.4 46.4 4.8 -11.3341
1023 4 48 48 3.2 -13.3967
992 3 49.6 46.4 4.8 -11.3612
994 2 1.6 49.6 4.8 -9.86639
996 3 4.8 49.6 4.8 -11.354
998 3 8 49.6 4.8 -11.292
1000 2 11.2 49.6 4.8 -9.78312
1002 2 14.4 49.6 4.8 -9.79396
1004 3 17.6 49.6 4.8 -11.2682
1006 3 20.8 49.6 4.8 -11.2966
1008 2 24 49.6 4.8 -9.71658
1010 2 27.2 49.6 4.8 -9.78106
1012 2 30.4 49.6 4.8 -9.87101
1014 3 33.6 49.6 4.8 -11.3106
1016 2 36.8 49.6 4.8 -9.85837
1018 4 40 49.6 4.8 -13.3667
1020 2 43.2 49.6 4.8 -9.88408
1022 3 46.4 49.6 4.8 -11.3331
1024 3 49.6 49.6 4.8 -11.328
1025 1 0 0 6.4 -11.8432
1026 3 1.6 1.6 8 -11.3054
1027 1 3.2 0 6.4 -11.8315
1028 3 4.8 1.6 8 -11.3854
1029 1 6.4 0 6.4 -11.8251
1030 3 8 1.6 8 -11.3478
1031 1 9.6 0 6.4 -11.7758
1032 2 11.2 1.6 8 -9.87267
1033 4 12.8 0 6.4 -13.2953
1034 3 14.4 1.6 8 -11.2614
1035 1 16 0 6.4 -11.7973
1036 3 17.6 1.6 8 -11.2759
1037 1 19.2 0 6.4 -11.8692
1038 3 20.8 1.6 8 -11.2732
1039 1 22.4 0 6.4 -11.8257
1040 3 24 1.6 8 -11.2402
1041 1 25.6 0 6.4 -11.7503
1042 3 27.2 1.6 8 -11.2048
1043 1 28.8 0 6.4 -11.782
1044 3 30.4 1.6 8 -11.2003
1045 1 32 0 6.4 -11.8184
1046 2 33.6 1.6 8 -9.90859
1047 2 35.2 0 6.4 -9.90579
1048 2 36.8 1.6 8 -9.95017
1049 2 38.4 0 6.4 -9.89997
1050 3 40 1.6 8 -11.393
1051 2 41.6 0 6.4 -9.90203
1052 3 43.2 1.6 8 -11.3821
1053 1 44.8 0 6.4 -11.7868
1054 3 46.4 1.6 8 -11.2423
1055 1 48 0 6.4 -11.8677
1056 3 49.6 1.6 8 -11.2036
1057 1 0 3.2 6.4 -11.8413
1058 3 1.6 4.8 8 -11.3047
1059 1 3.2 3.2 6.4 -11.8537
1060 3 4.8 4.8 8 -11.379
1061 1 6.4 3.2 6.4 -11.8192
1062 2 8 4.8 8 -9.8392
1063 2 9.6 3.2 6.4 -9.78874
1064 4 11.2 4.8 8 -13.3219
1065 1 12.8 3.2 6.4 -11.7606
1066 2 14.4 4.8 8 -9.86255
1067 1 16 3.2 6.4 -11.7934
1068 2 17.6 4.8 8 -9.84211
1069 4 19.2 3.2 6.4 -13.3517
1070 2 20.8 4.8 8 -9.78411
1071 1 22.4 3.2 6.4 -11.8263
1072 3 24 4.8 8 -11.2318
1073 1 25.6 3.2 6.4 -11.7978
1074 2 27.2 4.8 8 -9.85776
1075 1 28.8 3.2 6.4 -11.8181
1076 2 30.4 4.8 8 -9.86915
1077 2 32 3.2 6.4 -9.83319
1078 2 33.6 4.8 8 -9.86447
1079 2 35.2 3.2 6.4 -9.91262
1080 3 36.8 4.8 8 -11.3207
1081 1 38.4 3.2 6.4 -11.8252
1082 3 40 4.8 8 -11.3318
1083 4 41.6 3.2 6.4 -13.4354
1084 3 43.2 4.8 8 -11.2982
1085 1 44.8 3.2 6.4 -11.8274
1086 3 46.4 4.8 8 -11.242
1087 1 48 3.2 6.4 -11.8417
1088 3 49.6 4.8 8 -11.242
1089 1 0 6.4 6.4 -11.8414
1090 3 1.6 8 8 -11.2696
1091 1 3.2 6.4 6.4 -11.8413
1092 3 4.8 8 8 -11.3542
1093 1 6.4 6.4 6.4 -11.755
1094 2 8 8 8 -9.87123
1095 1 9.6 6.4 6.4 -11.732
1096 2 11.2 8 8 -9.87952
1097 2 12.8 6.4 6.4 -9.87408
1098 4 14.4 8 8 -13.4422
1099 2 16 6.4 6.4 -9.88489
1100 1 17.6 8 8 -11.8196
1101 2 19.2 6.4 6.4 -9.88374
1102 2 20.8 8 8 -9.82724