ITEM: TIMESTEP
0
ITEM: NUMBER OF ATOMS
8192
ITEM: BOX BOUNDS pp pp pp
0.0000000000000000e+00 5.1200000000000003e+01
0.0000000000000000e+00 5.1200000000000003e+01
0.0000000000000000e+00 5.1200000000000003e+01
ITEM: ATOMS id type x y z c_eng
1 4 0 0 0 -13.3773
2 2 1.6 1.6 1.6 -9.80487
3 1 3.2 0 0 -11.7799
4 3 4.8 1.6 1.6 -11.2617
5 1 6.4 0 0 -11.7857
6 2 8 1.6 1.6 -9.84149
7 1 9.6 0 0 -11.7738
8 2 11.2 1.6 1.6 -9.9101
9 2 12.8 0 0 -9.91848
10 3 14.4 1.6 1.6 -11.4257
11 1 16 0 0 -11.7868
12 3 17.6 1.6 1.6 -11.3227
13 2 19.2 0 0 -9.89308
14 3 20.8 1.6 1.6 -11.4366
15 2 22.4 0 0 -9.93558
16 3 24 1.6 1.6 -11.361
17 2 25.6 0 0 -9.84711
18 3 27.2 1.6 1.6 -11.2365
19 1 28.8 0 0 -11.7438
20 2 30.4 1.6 1.6 -9.79317
21 1 32 0 0 -11.7652
22 3 33.6 1.6 1.6 -11.3383
23 1 35.2 0 0 -11.8555
24 3 36.8 1.6 1.6 -11.2002
25 1 38.4 0 0 -11.8414
26 3 40 1.6 1.6 -11.3081
27 1 41.6 0 0 -11.868
28 3 43.2 1.6 1.6 -11.3403
29 1 44.8 0 0 -11.8695
30 3 46.4 1.6 1.6 -11.3079
31 4 48 0 0 -13.3833
32 3 49.6 1.6 1.6 -11.335
33 2 0 3.2 0 -9.81844
34 3 1.6 4.8 1.6 -11.33
35 1 3.2 3.2 0 -11.7758
36 3 4.8 4.8 1.6 -11.3495
37 2 6.4 3.2 0 -9.84531
38 1 8 4.8 1.6 -11.7176
39 2 9.6 3.2 0 -9.81342
40 1 11.2 4.8 1.6 -11.779
41 2 12.8 3.2 0 -9.91248
42 2 14.4 4.8 1.6 -9.8454
43 1 16 3.2 0 -11.8013
44 4 17.6 4.8 1.6 -13.4079
45 2 19.2 3.2 0 -9.9216
46 3 20.8 4.8 1.6 -11.3774
47 2 22.4 3.2 0 -9.87571
48 3 24 4.8 1.6 -11.2369
49 1 25.6 3.2 0 -11.8348
50 3 27.2 4.8 1.6 -11.2032
51 4 28.8 3.2 0 -13.2994
52 2 30.4 4.8 1.6 -9.80875
53 2 32 3.2 0 -9.83126
54 3 33.6 4.8 1.6 -11.3548
55 1 35.2 3.2 0 -11.8369
56 2 36.8 4.8 1.6 -9.85656
57 1 38.4 3.2 0 -11.8223
58 3 40 4.8 1.6 -11.3582
59 2 41.6 3.2 0 -9.81264
60 3 43.2 4.8 1.6 -11.3943
61 1 44.8 3.2 0 -11.8816
62 3 46.4 4.8 1.6 -11.2753
63 1 48 3.2 0 -11.8815
64 3 49.6 4.8 1.6 -11.3679
65 4 0 6.4 0 -13.4368
66 3 1.6 8 1.6 -11.3832
67 1 3.2 6.4 0 -11.8133
68 3 4.8 8 1.6 -11.4245
69 2 6.4 6.4 0 -9.88852
70 2 8 8 1.6 -9.85103
71 2 9.6 6.4 0 -9.81382
72 1 11.2 8 1.6 -11.7028
73 2 12.8 6.4 0 -9.86522
74 4 14.4 8 1.6 -13.3611
75 2 16 6.4 0 -9.90198
76 4 17.6 8 1.6 -13.4373
77 2 19.2 6.4 0 -9.85019
78 3 20.8 8 1.6 -11.325
79 1 22.4 6.4 0 -11.8346
80 3 24 8 1.6 -11.273
81 1 25.6 6.4 0 -11.7577
82 3 27.2 8 1.6 -11.2971
83 1 28.8 6.4 0 -11.746
84 3 30.4 8 1.6 -11.2571
85 4 32 6.4 0 -13.3094
86 2 33.6 8 1.6 -9.93455
87 2 35.2 6.4 0 -9.89591
88 3 36.8 8 1.6 -11.3475
89 4 38.4 6.4 0 -13.3648
90 3 40 8 1.6 -11.3605
91 2 41.6 6.4 0 -9.91216
92 3 43.2 8 1.6 -11.3308
93 1 44.8 6.4 0 -11.8674
94 3 46.4 8 1.6 -11.2764
95 1 48 6.4 0 -11.8551
96 3 49.6 8 1.6 -11.3324
97 2 0 9.6 0 -9.8592
98 2 1.6 11.2 1.6 -9.90607
99 4 3.2 9.6 0 -13.4234
100 2 4.8 11.2 1.6 -9.90008
101 2 6.4 9.6 0 -9.89729
102 2 8 11.2 1.6 -9.91942
103 2 9.6 9.6 0 -9.8525
104 2 11.2 11.2 1.6 -9.84097
105 4 12.8 9.6 0 -13.3166
106 2 14.4 11.2 1.6 -9.87872
107 3 16 9.6 0 -11.3393
108 2 17.6 11.2 1.6 -9.90004
109 1 19.2 9.6 0 -11.8199
110 2 20.8 11.2 1.6 -9.8666
111 4 22.4 9.6 0 -13.3238
112 2 24 11.2 1.6 -9.86649
113 1 25.6 9.6 0 -11.7801
114 2 27.2 11.2 1.6 -9.88885
115 1 28.8 9.6 0 -11.7457
116 2 30.4 11.2 1.6 -9.88891
117 1 32 9.6 0 -11.7714
118 2 33.6 11.2 1.6 -9.86007
119 4 35.2 9.6 0 -13.3325
120 2 36.8 11.2 1.6 -9.86747
121 1 38.4 9.6 0 -11.7897
122 2 40 11.2 1.6 -9.90098
123 2 41.6 9.6 0 -9.87568
124 2 43.2 11.2 1.6 -9.90897
125 1 44.8 9.6 0 -11.845
126 3 46.4 11.2 1.6 -11.3429
127 1 48 9.6 0 -11.873
128 2 49.6 11.2 1.6 -9.90727
129 2 0 12.8 0 -9.92622
130 1 1.6 14.4 1.6 -11.7417
131 2 3.2 12.8 0 -9.81794
132 1 4.8 14.4 1.6 -11.665
133 2 6.4 12.8 0 -9.88107
134 4 8 14.4 1.6 -13.347
135 2 9.6 12.8 0 -9.97223
136 2 11.2 14.4 1.6 -9.9085
137 4 12.8 12.8 0 -13.3332
138 2 14.4 14.4 1.6 -9.86138
139 2 16 12.8 0 -9.93962
140 2 17.6 14.4 1.6 -9.90552
141 2 19.2 12.8 0 -9.90918
142 1 20.8 14.4 1.6 -11.7795
143 2 22.4 12.8 0 -9.88107
144 1 24 14.4 1.6 -11.7127
145 2 25.6 12.8 0 -9.85382
146 2 27.2 14.4 1.6 -9.884
147 4 28.8 12.8 0 -13.3628
148 2 30.4 14.4 1.6 -9.90013
149 2 32 12.8 0 -9.8521
150 1 33.6 14.4 1.6 -11.7575
151 4 35.2 12.8 0 -13.3631
152 4 36.8 14.4 1.6 -13.3676
153 2 38.4 12.8 0 -9.9124
154 2 40 14.4 1.6 -9.86467
155 2 41.6 12.8 0 -9.9472
156 1 43.2 14.4 1.6 -11.8273
157 2 44.8 12.8 0 -9.84954
158 1 46.4 14.4 1.6 -11.8185
159 3 48 12.8 0 -11.3859
160 1 49.6 14.4 1.6 -11.7635
161 2 0 16 0 -9.88671
162 2 1.6 17.6 1.6 -9.81281
163 2 3.2 16 0 -9.84069
164 2 4.8 17.6 1.6 -9.89454
165 2 6.4 16 0 -9.81753
166 2 8 17.6 1.6 -9.86688
167 3 9.6 16 0 -11.3943
168 4 11.2 17.6 1.6 -13.3831
169 2 12.8 16 0 -9.88074
170 1 14.4 17.6 1.6 -11.7068
171 2 16 16 0 -9.89341
172 1 17.6 17.6 1.6 -11.7578
173 3 19.2 16 0 -11.3791
174 2 20.8 17.6 1.6 -9.88393
175 2 22.4 16 0 -9.90006
176 2 24 17.6 1.6 -9.90079
177 4 25.6 16 0 -13.3958
178 2 27.2 17.6 1.6 -9.9369
179 2 28.8 16 0 -9.91567
180 2 30.4 17.6 1.6 -9.88459
181 2 32 16 0 -9.92912
182 2 33.6 17.6 1.6 -9.89099
183 2 35.2 16 0 -9.89477
184 1 36.8 17.6 1.6 -11.8695
185 3 38.4 16 0 -11.3854
186 1 40 17.6 1.6 -11.8677
187 3 41.6 16 0 -11.3337
188 1 43.2 17.6 1.6 -11.8117
189 3 44.8 16 0 -11.2045
190 1 46.4 17.6 1.6 -11.7978
191 3 48 16 0 -11.3354
192 1 49.6 17.6 1.6 -11.8119
193 2 0 19.2 0 -9.89906
194 1 1.6 20.8 1.6 -11.8326
195 2 3.2 19.2 0 -9.92616
196 2 4.8 20.8 1.6 -9.91555
197 2 6.4 19.2 0 -9.96253
198 2 8 20.8 1.6 -9.9483
199 2 9.6 19.2 0 -9.90674
200 2 11.2 20.8 1.6 -9.9068
201 4 12.8 19.2 0 -13.3306
202 2 14.4 20.8 1.6 -9.8599
203 2 16 19.2 0 -9.84107
204 1 17.6 20.8 1.6 -11.7603
205 2 19.2 19.2 0 -9.90847
206 2 20.8 20.8 1.6 -9.91205
207 2 22.4 19.2 0 -9.9093
208 2 24 20.8 1.6 -9.88853
209 2 25.6 19.2 0 -9.84607
210 4 27.2 20.8 1.6 -13.3431
211 2 28.8 19.2 0 -9.90877
212 1 30.4 20.8 1.6 -11.7211
213 2 32 19.2 0 -9.9247
214 2 33.6 20.8 1.6 -9.89811
215 3 35.2 19.2 0 -11.4361
216 1 36.8 20.8 1.6 -11.8522
217 3 38.4 19.2 0 -11.2394
218 1 40 20.8 1.6 -11.812
219 3 41.6 19.2 0 -11.242
220 1 43.2 20.8 1.6 -11.8704
221 3 44.8 19.2 0 -11.2394
222 4 46.4 20.8 1.6 -13.3824
223 3 48 19.2 0 -11.3031
224 2 49.6 20.8 1.6 -9.8456
225 3 0 22.4 0 -11.3937
226 2 1.6 24 1.6 -9.9174
227 2 3.2 22.4 0 -9.96252
228 2 4.8 24 1.6 -9.93074
229 2 6.4 22.4 0 -9.89708
230 3 8 24 1.6 -11.224
231 4 9.6 22.4 0 -13.3975
232 2 11.2 24 1.6 -9.86334
233 2 12.8 22.4 0 -9.88451
234 2 14.4 24 1.6 -9.91565
235 2 16 22.4 0 -9.9263
236 1 17.6 24 1.6 -11.801
237 3 19.2 22.4 0 -11.353
238 2 20.8 24 1.6 -9.92916
239 2 22.4 22.4 0 -9.92527
240 2 24 24 1.6 -9.90584
241 1 25.6 22.4 0 -11.7483
242 2 27.2 24 1.6 -9.88492
243 2 28.8 22.4 0 -9.83495
244 1 30.4 24 1.6 -11.8051
245 2 32 22.4 0 -9.91621
246 2 33.6 24 1.6 -9.79888
247 3 35.2 22.4 0 -11.3503
248 1 36.8 24 1.6 -11.7781
249 2 38.4 22.4 0 -9.74099
250 1 40 24 1.6 -11.7444
251 3 41.6 22.4 0 -11.2005
252 4 43.2 24 1.6 -13.3818
253 3 44.8 22.4 0 -11.3097
254 1 46.4 24 1.6 -11.8284
255 3 48 22.4 0 -11.3912
256 2 49.6 24 1.6 -9.93389
257 2 0 25.6 0 -9.96869
259 2 3.2 25.6 0 -9.92783
261 1 6.4 25.6 0 -11.8109
263 1 9.6 25.6 0 -11.7265
265 4 12.8 25.6 0 -13.3969
267 2 16 25.6 0 -9.90582
269 2 19.2 25.6 0 -9.93242
271 2 22.4 25.6 0 -9.92149
273 2 25.6 25.6 0 -9.87811
275 2 28.8 25.6 0 -9.91399
277 3 32 25.6 0 -11.3354
279 3 35.2 25.6 0 -11.2358
281 2 38.4 25.6 0 -9.7512
283 2 41.6 25.6 0 -9.86595
285 3 44.8 25.6 0 -11.2667
287 3 48 25.6 0 -11.3606
258 2 1.6 27.2 1.6 -9.94081
289 2 0 28.8 0 -9.84371
260 3 4.8 27.2 1.6 -11.3734
291 2 3.2 28.8 0 -9.92162
262 3 8 27.2 1.6 -11.2024
293 4 6.4 28.8 0 -13.3511
264 2 11.2 27.2 1.6 -9.83486
295 1 9.6 28.8 0 -11.7605
266 2 14.4 27.2 1.6 -9.91571
297 2 12.8 28.8 0 -9.85356
268 2 17.6 27.2 1.6 -9.89285
299 2 16 28.8 0 -9.86375
270 4 20.8 27.2 1.6 -13.442
301 2 19.2 28.8 0 -9.9342
272 4 24 27.2 1.6 -13.4215
303 2 22.4 28.8 0 -9.88708
305 2 25.6 28.8 0 -9.91223
274 2 27.2 27.2 1.6 -9.86479
307 2 28.8 28.8 0 -9.89598
276 1 30.4 27.2 1.6 -11.8302
309 3 32 28.8 0 -11.3047
278 1 33.6 27.2 1.6 -11.8422
311 3 35.2 28.8 0 -11.274
280 1 36.8 27.2 1.6 -11.7552
313 2 38.4 28.8 0 -9.91569
282 2 40 27.2 1.6 -9.89439
315 2 41.6 28.8 0 -9.8853
284 2 43.2 27.2 1.6 -9.87455
317 2 44.8 28.8 0 -9.86581
286 4 46.4 27.2 1.6 -13.4268
319 3 48 28.8 0 -11.3499
288 2 49.6 27.2 1.6 -9.85195
290 2 1.6 30.4 1.6 -9.90665
321 3 0 32 0 -11.2913
292 3 4.8 30.4 1.6 -11.3898
323 2 3.2 32 0 -9.86898
294 3 8 30.4 1.6 -11.2713
325 1 6.4 32 0 -11.8208
296 2 11.2 30.4 1.6 -9.85785
327 4 9.6 32 0 -13.3495
298 1 14.4 30.4 1.6 -11.7671
329 3 12.8 32 0 -11.2918
300 2 17.6 30.4 1.6 -9.89593
331 2 16 32 0 -9.86891
302 4 20.8 30.4 1.6 -13.3633
333 2 19.2 32 0 -9.84407
304 4 24 30.4 1.6 -13.3478
335 2 22.4 32 0 -9.80981
337 2 25.6 32 0 -9.91918
306 2 27.2 30.4 1.6 -9.85003
339 2 28.8 32 0 -9.84291
308 1 30.4 30.4 1.6 -11.8463
341 3 32 32 0 -11.2738
310 1 33.6 30.4 1.6 -11.8411
343 3 35.2 32 0 -11.3052
312 1 36.8 30.4 1.6 -11.8332
345 2 38.4 32 0 -9.92798
314 2 40 30.4 1.6 -9.89036
347 2 41.6 32 0 -9.87283
316 4 43.2 30.4 1.6 -13.3121
349 2 44.8 32 0 -9.89129
318 2 46.4 30.4 1.6 -9.90459
351 2 48 32 0 -9.99698
320 4 49.6 30.4 1.6 -13.3997
322 3 1.6 33.6 1.6 -11.3238
353 1 0 35.2 0 -11.819
324 3 4.8 33.6 1.6 -11.337
355 1 3.2 35.2 0 -11.8453
326 3 8 33.6 1.6 -11.325
357 1 6.4 35.2 0 -11.8512
328 2 11.2 33.6 1.6 -9.9104
359 1 9.6 35.2 0 -11.7719
330 2 14.4 33.6 1.6 -9.86281
361 1 12.8 35.2 0 -11.7324
332 2 17.6 33.6 1.6 -9.82735
363 2 16 35.2 0 -9.84631
334 1 20.8 33.6 1.6 -11.7396
365 3 19.2 35.2 0 -11.2263
336 1 24 33.6 1.6 -11.8043
367 2 22.4 35.2 0 -9.8589
369 3 25.6 35.2 0 -11.3883
338 4 27.2 33.6 1.6 -13.3573
371 3 28.8 35.2 0 -11.2377
340 1 30.4 33.6 1.6 -11.8278
373 3 32 35.2 0 -11.2051
342 1 33.6 33.6 1.6 -11.8278
375 3 35.2 35.2 0 -11.1955
344 1 36.8 33.6 1.6 -11.778
377 2 38.4 35.2 0 -9.87036
346 2 40 33.6 1.6 -9.83213
379 4 41.6 35.2 0 -13.3905
348 2 43.2 33.6 1.6 -9.81456
381 4 44.8 35.2 0 -13.4332
350 2 46.4 33.6 1.6 -9.94995
383 2 48 35.2 0 -9.83305
352 3 49.6 33.6 1.6 -11.3443
354 3 1.6 36.8 1.6 -11.2045
385 1 0 38.4 0 -11.812
356 3 4.8 36.8 1.6 -11.3625
387 1 3.2 38.4 0 -11.8693
358 3 8 36.8 1.6 -11.4056
389 4 6.4 38.4 0 -13.3786
360 2 11.2 36.8 1.6 -9.81002
391 1 9.6 38.4 0 -11.8083
362 1 14.4 36.8 1.6 -11.6784
393 2 12.8 38.4 0 -9.80643
364 1 17.6 36.8 1.6 -11.8027
395 2 16 38.4 0 -9.82963
366 1 20.8 36.8 1.6 -11.8441
397 2 19.2 38.4 0 -9.89769
368 4 24 36.8 1.6 -13.3945
399 3 22.4 38.4 0 -11.3453
401 3 25.6 38.4 0 -11.3231
370 1 27.2 36.8 1.6 -11.7921
403 2 28.8 38.4 0 -9.81505
372 1 30.4 36.8 1.6 -11.7874
405 2 32 38.4 0 -9.81115
374 1 33.6 36.8 1.6 -11.7506
407 2 35.2 38.4 0 -9.81275
376 1 36.8 36.8 1.6 -11.7702
409 2 38.4 38.4 0 -9.9202
378 2 40 36.8 1.6 -9.8884
411 4 41.6 38.4 0 -13.4581
380 3 43.2 36.8 1.6 -11.3573
413 2 44.8 38.4 0 -9.81266
382 3 46.4 36.8 1.6 -11.3645
415 1 48 38.4 0 -11.8667
384 3 49.6 36.8 1.6 -11.2745
386 3 1.6 40 1.6 -11.2756
417 1 0 41.6 0 -11.8415
388 3 4.8 40 1.6 -11.3364
419 1 3.2 41.6 0 -11.8555
390 2 8 40 1.6 -9.91684
421 1 6.4 41.6 0 -11.8184
392 2 11.2 40 1.6 -9.87667
423 2 9.6 41.6 0 -9.867
394 1 14.4 40 1.6 -11.7249
425 2 12.8 41.6 0 -9.85699
396 4 17.6 40 1.6 -13.2857
427 2 16 41.6 0 -9.85683
398 2 20.8 40 1.6 -9.88466
429 2 19.2 41.6 0 -9.91057
400 2 24 40 1.6 -9.86807
431 2 22.4 41.6 0 -9.88598
433 3 25.6 41.6 0 -11.2563
402 1 27.2 40 1.6 -11.7957
435 2 28.8 41.6 0 -9.87408
404 2 30.4 40 1.6 -9.77964
437 2 32 41.6 0 -9.81346
406 1 33.6 40 1.6 -11.7838
439 2 35.2 41.6 0 -9.84069
408 2 36.8 40 1.6 -9.83844
441 2 38.4 41.6 0 -9.90276
410 2 40 40 1.6 -9.94573
443 1 41.6 41.6 0 -11.8449
412 3 43.2 40 1.6 -11.3641
445 1 44.8 41.6 0 -11.8677
414 3 46.4 40 1.6 -11.3075
447 1 48 41.6 0 -11.8556
416 3 49.6 40 1.6 -11.2417
418 3 1.6 43.2 1.6 -11.2753
449 1 0 44.8 0 -11.8556
420 3 4.8 43.2 1.6 -11.2732
451 1 3.2 44.8 0 -11.8695
422 2 8 43.2 1.6 -9.81417
453 4 6.4 44.8 0 -13.3526
424 1 11.2 43.2 1.6 -11.7385
455 2 9.6 44.8 0 -9.85934
426 1 14.4 43.2 1.6 -11.6877
457 2 12.8 44.8 0 -9.77692
428 4 17.6 43.2 1.6 -13.3638
459 2 16 44.8 0 -9.86048
430 3 20.8 43.2 1.6 -11.3593
461 2 19.2 44.8 0 -9.92666
432 4 24 43.2 1.6 -13.4277
463 2 22.4 44.8 0 -9.88462
465 2 25.6 44.8 0 -9.91093
434 2 27.2 43.2 1.6 -9.85072
467 2 28.8 44.8 0 -9.91179
436 1 30.4 43.2 1.6 -11.7749
469 2 32 44.8 0 -9.82843
438 1 33.6 43.2 1.6 -11.7177
471 2 35.2 44.8 0 -9.86229
440 1 36.8 43.2 1.6 -11.7929
473 2 38.4 44.8 0 -9.85665
442 2 40 43.2 1.6 -9.88427
475 1 41.6 44.8 0 -11.8548
444 3 43.2 43.2 1.6 -11.2733
477 1 44.8 44.8 0 -11.8836
446 3 46.4 43.2 1.6 -11.3086
479 4 48 44.8 0 -13.3645
448 3 49.6 43.2 1.6 -11.2753
450 3 1.6 46.4 1.6 -11.3086
481 1 0 48 0 -11.8835
452 3 4.8 46.4 1.6 -11.3671
483 4 3.2 48 0 -13.381
454 2 8 46.4 1.6 -9.88645
485 4 6.4 48 0 -13.467
456 1 11.2 46.4 1.6 -11.7346
487 2 9.6 48 0 -9.86878
458 1 14.4 46.4 1.6 -11.7392
489 2 12.8 48 0 -9.86009
460 2 17.6 46.4 1.6 -9.89078
491 2 16 48 0 -9.87572
462 2 20.8 46.4 1.6 -9.94933
493 2 19.2 48 0 -9.92306
464 2 24 46.4 1.6 -9.95795
495 2 22.4 48 0 -9.8986
497 2 25.6 48 0 -9.96368
466 2 27.2 46.4 1.6 -9.90656
499 2 28.8 48 0 -9.82716
468 2 30.4 46.4 1.6 -9.83798
501 1 32 48 0 -11.7913
470 2 33.6 46.4 1.6 -9.8401
503 1 35.2 48 0 -11.8133
472 2 36.8 46.4 1.6 -9.83776
505 1 38.4 48 0 -11.8419
474 3 40 46.4 1.6 -11.3019
507 1 41.6 48 0 -11.8555
476 3 43.2 46.4 1.6 -11.3089
509 4 44.8 48 0 -13.3639
478 3 46.4 46.4 1.6 -11.3412
511 1 48 48 0 -11.884
480 3 49.6 46.4 1.6 -11.3079
482 3 1.6 49.6 1.6 -11.3061
484 3 4.8 49.6 1.6 -11.3359
486 2 8 49.6 1.6 -9.86277
488 4 11.2 49.6 1.6 -13.4069
490 3 14.4 49.6 1.6 -11.3493
492 2 17.6 49.6 1.6 -9.91142
494 2 20.8 49.6 1.6 -9.90659
496 2 24 49.6 1.6 -9.94501
498 4 27.2 49.6 1.6 -13.3551
500 2 30.4 49.6 1.6 -9.73374
502 3 33.6 49.6 1.6 -11.2334
504 3 36.8 49.6 1.6 -11.2384
506 3 40 49.6 1.6 -11.2417
508 3 43.2 49.6 1.6 -11.2753
510 3 46.4 49.6 1.6 -11.3086
512 3 49.6 49.6 1.6 -11.339
513 1 0 0 3.2 -11.8414
514 3 1.6 1.6 4.8 -11.2378
515 1 3.2 0 3.2 -11.8253
516 3 4.8 1.6 4.8 -11.3334
517 1 6.4 0 3.2 -11.8203
518 2 8 1.6 4.8 -9.86168
519 2 9.6 0 3.2 -9.88887
520 2 11.2 1.6 4.8 -9.9866
521 3 12.8 0 3.2 -11.4589
522 2 14.4 1.6 4.8 -9.94504
523 1 16 0 3.2 -11.8693
524 3 17.6 1.6 4.8 -11.3887
525 1 19.2 0 3.2 -11.8304
526 3 20.8 1.6 4.8 -11.2022
527 1 22.4 0 3.2 -11.8169
528 3 24 1.6 4.8 -11.2392
529 1 25.6 0 3.2 -11.8378
530 3 27.2 1.6 4.8 -11.2389
531 4 28.8 0 3.2 -13.2095
532 2 30.4 1.6 4.8 -9.84278
533 4 32 0 3.2 -13.3167
534 3 33.6 1.6 4.8 -11.3255
535 4 35.2 0 3.2 -13.3787
536 2 36.8 1.6 4.8 -9.83396
537 1 38.4 0 3.2 -11.8577
538 3 40 1.6 4.8 -11.2735
539 1 41.6 0 3.2 -11.8412
540 3 43.2 1.6 4.8 -11.2753
541 1 44.8 0 3.2 -11.8556
542 3 46.4 1.6 4.8 -11.2753
543 1 48 0 3.2 -11.8555
544 3 49.6 1.6 4.8 -11.2417
545 1 0 3.2 3.2 -11.8553
546 3 1.6 4.8 4.8 -11.3037
547 1 3.2 3.2 3.2 -11.8254
548 2 4.8 4.8 4.8 -9.91251
549 2 6.4 3.2 3.2 -9.85677
550 1 8 4.8 4.8 -11.7563
551 2 9.6 3.2 3.2 -9.88047
552 3 11.2 4.8 4.8 -11.2918
553 2 12.8 3.2 3.2 -9.96313
554 1 14.4 4.8 4.8 -11.8178
555 2 16 3.2 3.2 -9.85364
556 2 17.6 4.8 4.8 -9.86603
557 4 19.2 3.2 3.2 -13.4101
558 2 20.8 4.8 4.8 -9.77827
559 1 22.4 3.2 3.2 -11.8199
560 2 24 4.8 4.8 -9.67688
561 1 25.6 3.2 3.2 -11.8116
562 3 27.2 4.8 4.8 -11.2358
563 1 28.8 3.2 3.2 -11.7843
564 3 30.4 4.8 4.8 -11.3271
565 1 32 3.2 3.2 -11.8401
566 3 33.6 4.8 4.8 -11.3898
567 1 35.2 3.2 3.2 -11.8284
568 3 36.8 4.8 4.8 -11.2649
569 1 38.4 3.2 3.2 -11.7836
570 3 40 4.8 4.8 -11.242
571 1 41.6 3.2 3.2 -11.8817
572 3 43.2 4.8 4.8 -11.2753
573 4 44.8 3.2 3.2 -13.3645
574 3 46.4 4.8 4.8 -11.2756
575 1 48 3.2 3.2 -11.8554
576 3 49.6 4.8 4.8 -11.2397
577 4 0 6.4 3.2 -13.3459
578 2 1.6 8 4.8 -9.87046
579 4 3.2 6.4 3.2 -13.4521
580 2 4.8 8 4.8 -9.90941
581 2 6.4 6.4 3.2 -9.88714
582 2 8 8 4.8 -9.81159
583 2 9.6 6.4 3.2 -9.81671
584 2 11.2 8 4.8 -9.91989
585 3 12.8 6.4 3.2 -11.3394
586 2 14.4 8 4.8 -9.85987
587 2 16 6.4 3.2 -9.91652
588 2 17.6 8 4.8 -9.90518
589 2 19.2 6.4 3.2 -9.86864
590 3 20.8 8 4.8 -11.2903
591 1 22.4 6.4 3.2 -11.8087
592 3 24 8 4.8 -11.2647
593 1 25.6 6.4 3.2 -11.8373
594 3 27.2 8 4.8 -11.4146
595 1 28.8 6.4 3.2 -11.8617
596 3 30.4 8 4.8 -11.4072
597 1 32 6.4 3.2 -11.8457
598 2 33.6 8 4.8 -9.95457
599 2 35.2 6.4 3.2 -9.86651
600 3 36.8 8 4.8 -11.4131
601 1 38.4 6.4 3.2 -11.8568
602 3 40 8 4.8 -11.2397
603 1 41.6 6.4 3.2 -11.8675
604 3 43.2 8 4.8 -11.2764
605 1 44.8 6.4 3.2 -11.8554
606 3 46.4 8 4.8 -11.3012
607 1 48 6.4 3.2 -11.8436
608 2 49.6 8 4.8 -9.8149
609 1 0 9.6 3.2 -11.8361
610 3 1.6 11.2 4.8 -11.3288
611 2 3.2 9.6 3.2 -9.83708
612 4 4.8 11.2 4.8 -13.4032
613 4 6.4 9.6 3.2 -13.3894
614 2 8 11.2 4.8 -9.91971
615 1 9.6 9.6 3.2 -11.7548
616 3 11.2 11.2 4.8 -11.3726
617 2 12.8 9.6 3.2 -9.82031
618 2 14.4 11.2 4.8 -9.88855
619 2 16 9.6 3.2 -9.92981
620 4 17.6 11.2 4.8 -13.3664
621 2 19.2 9.6 3.2 -9.85934
622 2 20.8 11.2 4.8 -9.88717
623 1 22.4 9.6 3.2 -11.8513
624 2 24 11.2 4.8 -9.88661
625 2 25.6 9.6 3.2 -9.85539
626 2 27.2 11.2 4.8 -9.95012
627 2 28.8 9.6 3.2 -9.87861
628 2 30.4 11.2 4.8 -9.9327
629 2 32 9.6 3.2 -9.88543
630 2 33.6 11.2 4.8 -9.92139
631 2 35.2 9.6 3.2 -9.9268
632 2 36.8 11.2 4.8 -9.9251
633 1 38.4 9.6 3.2 -11.8033
634 2 40 11.2 4.8 -9.8852
635 1 41.6 9.6 3.2 -11.833
636 3 43.2 11.2 4.8 -11.3375
637 1 44.8 9.6 3.2 -11.8459
638 2 46.4 11.2 4.8 -9.9523
639 4 48 9.6 3.2 -13.3545
640 2 49.6 11.2 4.8 -9.88688
641 2 0 12.8 3.2 -9.82838
642 2 1.6 14.4 4.8 -9.90623
643 2 3.2 12.8 3.2 -9.90082
644 2 4.8 14.4 4.8 -9.87162
645 2 6.4 12.8 3.2 -9.86196
646 2 8 14.4 4.8 -9.93016
647 3 9.6 12.8 3.2 -11.354
648 2 11.2 14.4 4.8 -9.93931
649 1 12.8 12.8 3.2 -11.7971
650 2 14.4 14.4 4.8 -9.87407
651 4 16 12.8 3.2 -13.3652
652 2 17.6 14.4 4.8 -9.89336
653 2 19.2 12.8 3.2 -9.88824
654 4 20.8 14.4 4.8 -13.3577
655 2 22.4 12.8 3.2 -9.78567
656 1 24 14.4 4.8 -11.7764
657 2 25.6 12.8 3.2 -9.88108
658 2 27.2 14.4 4.8 -9.8777
659 4 28.8 12.8 3.2 -13.4207
660 2 30.4 14.4 4.8 -9.84038
661 2 32 12.8 3.2 -9.85643
662 1 33.6 14.4 4.8 -11.7463
663 2 35.2 12.8 3.2 -9.86123
664 4 36.8 14.4 4.8 -13.3414
665 2 38.4 12.8 3.2 -9.90958
666 1 40 14.4 4.8 -11.8482
667 3 41.6 12.8 3.2 -11.3597
668 4 43.2 14.4 4.8 -13.3782
669 2 44.8 12.8 3.2 -9.9008
670 4 46.4 14.4 4.8 -13.3511
671 2 48 12.8 3.2 -9.88056
672 1 49.6 14.4 4.8 -11.8099
673 2 0 16 3.2 -9.83556
674 2 1.6 17.6 4.8 -9.93566
675 2 3.2 16 3.2 -9.85356
676 2 4.8 17.6 4.8 -9.90748
677 1 6.4 16 3.2 -11.7197
678 2 8 17.6 4.8 -9.94098
679 2 9.6 16 3.2 -9.94451
680 2 11.2 17.6 4.8 -9.90623
681 2 12.8 16 3.2 -9.83779
682 1 14.4 17.6 4.8 -11.8172
683 2 16 16 3.2 -9.83452
684 1 17.6 17.6 4.8 -11.7851
685 2 19.2 16 3.2 -9.90056
686 2 20.8 17.6 4.8 -9.8932
687 2 22.4 16 3.2 -9.83367
688 2 24 17.6 4.8 -9.89582
689 2 25.6 16 3.2 -9.90001
690 2 27.2 17.6 4.8 -9.93246
691 2 28.8 16 3.2 -9.8907
692 4 30.4 17.6 4.8 -13.3497
693 2 32 16 3.2 -9.89038
694 4 33.6 17.6 4.8 -13.3899
695 3 35.2 16 3.2 -11.2909
696 4 36.8 17.6 4.8 -13.3783
697 3 38.4 16 3.2 -11.3662
698 1 40 17.6 4.8 -11.7834
699 3 41.6 16 3.2 -11.3066
700 1 43.2 17.6 4.8 -11.7611
701 3 44.8 16 3.2 -11.1991
702 1 46.4 17.6 4.8 -11.805
703 3 48 16 3.2 -11.236
704 2 49.6 17.6 4.8 -9.83978
705 2 0 19.2 3.2 -9.90798
706 2 1.6 20.8 4.8 -9.87178
707 2 3.2 19.2 3.2 -9.92065
708 2 4.8 20.8 4.8 -9.94485
709 2 6.4 19.2 3.2 -9.90923
710 2 8 20.8 4.8 -9.89999
711 2 9.6 19.2 3.2 -9.93689
712 2 11.2 20.8 4.8 -9.91577
713 2 12.8 19.2 3.2 -9.86324
714 4 14.4 20.8 4.8 -13.3754
715 3 16 19.2 3.2 -11.154
716 1 17.6 20.8 4.8 -11.7493
717 2 19.2 19.2 3.2 -9.80844
718 2 20.8 20.8 4.8 -9.90761
719 4 22.4 19.2 3.2 -13.4173
720 2 24 20.8 4.8 -9.92524
721 2 25.6 19.2 3.2 -9.93686
722 2 27.2 20.8 4.8 -9.88464
723 2 28.8 19.2 3.2 -9.86051
724 1 30.4 20.8 4.8 -11.7474
725 2 32 19.2 3.2 -9.88688
726 4 33.6 20.8 4.8 -13.3518
727 3 35.2 19.2 3.2 -11.3867
728 1 36.8 20.8 4.8 -11.8454
729 3 38.4 19.2 3.2 -11.2402
730 1 40 20.8 4.8 -11.7886
731 3 41.6 19.2 3.2 -11.2386
732 2 43.2 20.8 4.8 -9.86872
733 2 44.8 19.2 3.2 -9.83352
734 2 46.4 20.8 4.8 -9.85389
735 2 48 19.2 3.2 -9.887
736 2 49.6 20.8 4.8 -9.9693
737 2 0 22.4 3.2 -9.94794
738 4 1.6 24 4.8 -13.4202
739 2 3.2 22.4 3.2 -9.9059
740 2 4.8 24 4.8 -9.8598
741 4 6.4 22.4 3.2 -13.3958
742 2 8 24 4.8 -9.8112
743 4 9.6 22.4 3.2 -13.37
744 2 11.2 24 4.8 -9.86047
745 2 12.8 22.4 3.2 -9.93691
746 2 14.4 24 4.8 -9.92151
747 2 16 22.4 3.2 -9.86375
748 2 17.6 24 4.8 -9.87931
749 2 19.2 22.4 3.2 -9.87604
750 3 20.8 24 4.8 -11.3595
751 4 22.4 22.4 3.2 -13.4164
752 2 24 24 4.8 -9.92995
753 2 25.6 22.4 3.2 -9.8907
754 2 27.2 24 4.8 -9.87162
755 2 28.8 22.4 3.2 -9.83126
756 4 30.4 24 4.8 -13.3513
757 2 32 22.4 3.2 -9.83742
758 1 33.6 24 4.8 -11.8752
759 3 35.2 22.4 3.2 -11.3908
760 2 36.8 24 4.8 -9.76255
761 3 38.4 22.4 3.2 -11.2001
762 1 40 24 4.8 -11.7829
763 3 41.6 22.4 3.2 -11.3301
764 2 43.2 24 4.8 -9.88689
765 3 44.8 22.4 3.2 -11.3466
766 1 46.4 24 4.8 -11.8018
767 2 48 22.4 3.2 -9.92936
768 2 49.6 24 4.8 -9.86164
769 2 0 25.6 3.2 -9.8991
771 2 3.2 25.6 3.2 -9.92648
773 1 6.4 25.6 3.2 -11.775
775 1 9.6 25.6 3.2 -11.7466
777 2 12.8 25.6 3.2 -9.88464
779 2 16 25.6 3.2 -9.92062
781 2 19.2 25.6 3.2 -9.94044
783 2 22.4 25.6 3.2 -9.9145
785 2 25.6 25.6 3.2 -9.94803
787 3 28.8 25.6 3.2 -11.3217
789 3 32 25.6 3.2 -11.2735
791 2 35.2 25.6 3.2 -9.83707
793 2 38.4 25.6 3.2 -9.82193
795 2 41.6 25.6 3.2 -9.9069
797 2 44.8 25.6 3.2 -9.90941
799 2 48 25.6 3.2 -9.88965
770 2 1.6 27.2 4.8 -9.88837
801 1 0 28.8 3.2 -11.7616
772 2 4.8 27.2 4.8 -9.83457
803 2 3.2 28.8 3.2 -9.83459
774 3 8 27.2 4.8 -11.0826
805 1 6.4 28.8 3.2 -11.8549
776 2 11.2 27.2 4.8 -9.8087
807 1 9.6 28.8 3.2 -11.7746
778 2 14.4 27.2 4.8 -9.9001
809 2 12.8 28.8 3.2 -9.85939
780 2 17.6 27.2 4.8 -9.92816
811 2 16 28.8 3.2 -9.92118
782 2 20.8 27.2 4.8 -9.92645
813 3 19.2 28.8 3.2 -11.4368
784 2 24 27.2 4.8 -9.85931
815 3 22.4 28.8 3.2 -11.3407
817 2 25.6 28.8 3.2 -9.91783
786 1 27.2 27.2 4.8 -11.8201
819 3 28.8 28.8 3.2 -11.3018
788 1 30.4 27.2 4.8 -11.8275
821 3 32 28.8 3.2 -11.242
790 1 33.6 27.2 4.8 -11.8116
823 3 35.2 28.8 3.2 -11.239
792 1 36.8 27.2 4.8 -11.8213
825 3 38.4 28.8 3.2 -11.3656
794 2 40 27.2 4.8 -9.88975
827 2 41.6 28.8 3.2 -9.94508
796 2 43.2 27.2 4.8 -9.94101
829 2 44.8 28.8 3.2 -9.87807
798 2 46.4 27.2 4.8 -9.83295
831 2 48 28.8 3.2 -9.88157
800 4 49.6 27.2 4.8 -13.3733
802 3 1.6 30.4 4.8 -11.2899
833 4 0 32 3.2 -13.3683
804 3 4.8 30.4 4.8 -11.3065
835 1 3.2 32 3.2 -11.8566
806 3 8 30.4 4.8 -11.2389
837 1 6.4 32 3.2 -11.8718
808 2 11.2 30.4 4.8 -9.81446
839 4 9.6 32 3.2 -13.3499
810 1 14.4 30.4 4.8 -11.7568
841 2 12.8 32 3.2 -9.88382
812 2 17.6 30.4 4.8 -9.87166
843 2 16 32 3.2 -9.86732
814 4 20.8 30.4 4.8 -13.3594
845 2 19.2 32 3.2 -9.86217
816 1 24 30.4 4.8 -11.789
847 2 22.4 32 3.2 -9.75197
849 3 25.6 32 3.2 -11.2637
818 1 27.2 30.4 4.8 -11.8557
851 3 28.8 32 3.2 -11.3047
820 1 30.4 30.4 4.8 -11.8553
853 3 32 32 3.2 -11.2761
822 1 33.6 30.4 4.8 -11.8434
855 3 35.2 32 3.2 -11.2667
824 4 36.8 30.4 4.8 -13.4197
857 2 38.4 32 3.2 -9.86603
826 3 40 30.4 4.8 -11.3673
859 1 41.6 32 3.2 -11.7541
828 2 43.2 30.4 4.8 -9.91585
861 4 44.8 32 3.2 -13.366
830 2 46.4 30.4 4.8 -9.9293
863 2 48 32 3.2 -9.89722
832 2 49.6 30.4 4.8 -9.884
834 2 1.6 33.6 4.8 -9.86603
865 1 0 35.2 3.2 -11.8031
836 3 4.8 33.6 4.8 -11.3553
867 1 3.2 35.2 3.2 -11.8139
838 2 8 33.6 4.8 -9.93007
869 2 6.4 35.2 3.2 -9.88494
840 2 11.2 33.6 4.8 -9.88096
871 2 9.6 35.2 3.2 -9.91485
842 4 14.4 33.6 4.8 -13.3115
873 2 12.8 35.2 3.2 -9.83952
844 1 17.6 33.6 4.8 -11.8102
875 3 16 35.2 3.2 -11.2201
846 1 20.8 33.6 4.8 -11.744
877 3 19.2 35.2 3.2 -11.2758
848 1 24 33.6 4.8 -11.7496
879 3 22.4 35.2 3.2 -11.1613
881 3 25.6 35.2 3.2 -11.2744
850 1 27.2 33.6 4.8 -11.8697
883 3 28.8 35.2 3.2 -11.2387
852 1 30.4 33.6 4.8 -11.8691
885 3 32 35.2 3.2 -11.3052
854 4 33.6 33.6 4.8 -13.3818
887 2 35.2 35.2 3.2 -9.85929
856 2 36.8 33.6 4.8 -9.85997
889 2 38.4 35.2 3.2 -9.84238
858 4 40 33.6 4.8 -13.3193
891 1 41.6 35.2 3.2 -11.7298
860 3 43.2 33.6 4.8 -11.2205
893 1 44.8 35.2 3.2 -11.8144
862 3 46.4 33.6 4.8 -11.3774
895 1 48 35.2 3.2 -11.8738
864 2 49.6 33.6 4.8 -9.93127
866 2 1.6 36.8 4.8 -9.78122
897 1 0 38.4 3.2 -11.812
868 2 4.8 36.8 4.8 -9.88856
899 1 3.2 38.4 3.2 -11.8223
870 2 8 36.8 4.8 -9.92124
901 2 6.4 38.4 3.2 -9.85448
872 4 11.2 36.8 4.8 -13.3972
903 2 9.6 38.4 3.2 -9.92042
874 1 14.4 36.8 4.8 -11.7381
905 2 12.8 38.4 3.2 -9.85262
876 1 17.6 36.8 4.8 -11.7814
907 2 16 38.4 3.2 -9.72734
878 1 20.8 36.8 4.8 -11.854
909 3 19.2 38.4 3.2 -11.2644
880 1 24 36.8 4.8 -11.8308
911 3 22.4 38.4 3.2 -11.3854
913 2 25.6 38.4 3.2 -9.86205
882 1 27.2 36.8 4.8 -11.7885
915 2 28.8 38.4 3.2 -9.7854
884 1 30.4 36.8 4.8 -11.8273
917 3 32 38.4 3.2 -11.2567
886 2 33.6 36.8 4.8 -9.87159
919 2 35.2 38.4 3.2 -9.86896
888 2 36.8 36.8 4.8 -9.90631
921 2 38.4 38.4 3.2 -9.92751
890 2 40 36.8 4.8 -9.88236
923 4 41.6 38.4 3.2 -13.4
892 3 43.2 36.8 4.8 -11.3061
925 1 44.8 38.4 3.2 -11.8813
894 3 46.4 36.8 4.8 -11.3377
927 1 48 38.4 3.2 -11.8552
896 3 49.6 36.8 4.8 -11.2958
898 3 1.6 40 4.8 -11.1988
929 1 0 41.6 3.2 -11.8558
900 3 4.8 40 4.8 -11.2729
931 4 3.2 41.6 3.2 -13.3645
902 2 8 40 4.8 -9.8624
933 1 6.4 41.6 3.2 -11.8015
904 3 11.2 40 4.8 -11.319
935 2 9.6 41.6 3.2 -9.88902
906 2 14.4 40 4.8 -9.8068
937 2 12.8 41.6 3.2 -9.82842
908 1 17.6 40 4.8 -11.7545
939 2 16 41.6 3.2 -9.76722
910 4 20.8 40 4.8 -13.4256
941 2 19.2 41.6 3.2 -9.88197
912 2 24 40 4.8 -9.91814
943 4 22.4 41.6 3.2 -13.4492
945 2 25.6 41.6 3.2 -9.92873
914 2 27.2 40 4.8 -9.86862
947 2 28.8 41.6 3.2 -9.91206
916 4 30.4 40 4.8 -13.4208
949 2 32 41.6 3.2 -9.8434
918 4 33.6 40 4.8 -13.3439
951 3 35.2 41.6 3.2 -11.2589
920 4 36.8 40 4.8 -13.3958
953 3 38.4 41.6 3.2 -11.3634
922 2 40 40 4.8 -9.92498
955 4 41.6 41.6 3.2 -13.3578
924 3 43.2 40 4.8 -11.2661
957 1 44.8 41.6 3.2 -11.8694
926 3 46.4 40 4.8 -11.2759
959 1 48 41.6 3.2 -11.8414
928 3 49.6 40 4.8 -11.2761
930 3 1.6 43.2 4.8 -11.2759
961 1 0 44.8 3.2 -11.8556
932 3 4.8 43.2 4.8 -11.1996
963 1 3.2 44.8 3.2 -11.8553
934 2 8 43.2 4.8 -9.80862
965 1 6.4 44.8 3.2 -11.8046
936 2 11.2 43.2 4.8 -9.90043
967 2 9.6 44.8 3.2 -9.83818
938 2 14.4 43.2 4.8 -9.85656
969 2 12.8 44.8 3.2 -9.82582
940 4 17.6 43.2 4.8 -13.2803
971 2 16 44.8 3.2 -9.81627
942 2 20.8 43.2 4.8 -9.93572
973 2 19.2 44.8 3.2 -9.93263
944 2 24 43.2 4.8 -9.92269
975 2 22.4 44.8 3.2 -9.96833
977 2 25.6 44.8 3.2 -9.92318
946 2 27.2 43.2 4.8 -9.88286
979 2 28.8 44.8 3.2 -9.90745
948 2 30.4 43.2 4.8 -9.87312
981 2 32 44.8 3.2 -9.85429
950 4 33.6 43.2 4.8 -13.3503
983 2 35.2 44.8 3.2 -9.83333
952 1 36.8 43.2 4.8 -11.8236
985 2 38.4 44.8 3.2 -9.86728
954 2 40 43.2 4.8 -9.8594
987 1 41.6 44.8 3.2 -11.8444
956 3 43.2 43.2 4.8 -11.2677
989 4 44.8 44.8 3.2 -13.3833
958 3 46.4 43.2 4.8 -11.307
991 1 48 44.8 3.2 -11.8696
960 3 49.6 43.2 4.8 -11.2414
962 3 1.6 46.4 4.8 -11.2756
993 4 0 48 3.2 -13.3645
964 3 4.8 46.4 4.8 -11.2358
995 1 3.2 48 3.2 -11.8964
966 2 8 46.4 4.8 -9.86324
997 2 6.4 48 3.2 -9.81203
968 4 11.2 46.4 4.8 -13.3683
999 2 9.6 48 3.2 -9.92846
970 2 14.4 46.4 4.8 -9.89364
1001 3 12.8 48 3.2 -11.3283
972 2 17.6 46.4 4.8 -9.92546
1003 4 16 48 3.2 -13.4387
974 2 20.8 46.4 4.8 -9.97502
1005 2 19.2 48 3.2 -9.91881
976 2 24 46.4 4.8 -9.94899
1007 2 22.4 48 3.2 -9.97758
1009 3 25.6 48 3.2 -11.359
978 4 27.2 46.4 4.8 -13.3976
1011 4 28.8 48 3.2 -13.3507
980 2 30.4 46.4 4.8 -9.90215
1013 1 32 48 3.2 -11.7885
982 3 33.6 46.4 4.8 -11.3272
1015 1 35.2 48 3.2 -11.8265
984 2 36.8 46.4 4.8 -9.89062
1017 1 38.4 48 3.2 -11.8131
986 3 40 46.4 4.8 -11.3023
1019 1 41.6 48 3.2 -11.8413
988 3 43.2 46.4 4.8 -11.3073
1021 1 44.8 48 3.2 -11.8697
990 3 46.4 46.4 4.8 -11.3068
1023 1 48 48 3.2 -11.8554
992 3 49.6 46.4 4.8 -11.2753
994 3 1.6 49.6 4.8 -11.3081
996 3 4.8 49.6 4.8 -11.3063
998 2 8 49.6 4.8 -9.88485
1000 2 11.2 49.6 4.8 -9.91429
1002 2 14.4 49.6 4.8 -9.98185
1004 3 17.6 49.6 4.8 -11.3418
1006 2 20.8 49.6 4.8 -9.89766
1008 3 24 49.6 4.8 -11.3924
1010 2 27.2 49.6 4.8 -9.88517
1012 2 30.4 49.6 4.8 -9.84622
1014 3 33.6 49.6 4.8 -11.4139
1016 3 36.8 49.6 4.8 -11.3625
1018 3 40 49.6 4.8 -11.3081
1020 3 43.2 49.6 4.8 -11.2414
1022 3 46.4 49.6 4.8 -11.2414
1024 3 49.6 49.6 4.8 -11.2753
1025 1 0 0 6.4 -11.8557
1026 3 1.6 1.6 8 -11.2381
1027 4 3.2 0 6.4 -13.3634
1028 3 4.8 1.6 8 -11.3271
1029 1 6.4 0 6.4 -11.8043
1030 4 8 1.6 8 -13.324
1031 2 9.6 0 6.4 -9.89939
1032 2 11.2 1.6 8 -9.87689
1033 2 12.8 0 6.4 -9.91297
1034 2 14.4 1.6 8 -9.91597
1035 2 16 0 6.4 -9.87449
1036 3 17.6 1.6 8 -11.3595
1037 1 19.2 0 6.4 -11.8295
1038 3 20.8 1.6 8 -11.3342
1039 1 22.4 0 6.4 -11.833
1040 3 24 1.6 8 -11.2699
1041 4 25.6 0 6.4 -13.3591
1042 3 27.2 1.6 8 -11.2367
1043 1 28.8 0 6.4 -11.7751
1044 2 30.4 1.6 8 -9.85938
1045 4 32 0 6.4 -13.3967
1046 4 33.6 1.6 8 -13.3671
1047 4 35.2 0 6.4 -13.405
1048 2 36.8 1.6 8 -9.87619
1049 2 38.4 0 6.4 -9.82478
1050 3 40 1.6 8 -11.3597
1051 1 41.6 0 6.4 -11.8817
1052 3 43.2 1.6 8 -11.3089
1053 1 44.8 0 6.4 -11.8414
1054 3 46.4 1.6 8 -11.2756
1055 1 48 0 6.4 -11.8417
1056 3 49.6 1.6 8 -11.242
1057 1 0 3.2 6.4 -11.8412
1058 3 1.6 4.8 8 -11.2742
1059 1 3.2 3.2 6.4 -11.8595
1060 2 4.8 4.8 8 -9.86694
1061 2 6.4 3.2 6.4 -9.82135
1062 1 8 4.8 8 -11.7169
1063 2 9.6 3.2 6.4 -9.87804
1064 2 11.2 4.8 8 -9.94863
1065 4 12.8 3.2 6.4 -13.4248
1066 2 14.4 4.8 8 -9.83835
1067 2 16 3.2 6.4 -9.86534
1068 3 17.6 4.8 8 -11.3837
1069 1 19.2 3.2 6.4 -11.8391
1070 3 20.8 4.8 8 -11.2256
1071 1 22.4 3.2 6.4 -11.7654
1072 2 24 4.8 8 -9.75386
1073 1 25.6 3.2 6.4 -11.7629
1074 2 27.2 4.8 8 -9.83823
1075 1 28.8 3.2 6.4 -11.819
1076 2 30.4 4.8 8 -9.91663
1077 3 32 3.2 6.4 -11.2758
1078 2 33.6 4.8 8 -9.81148
1079 1 35.2 3.2 6.4 -11.7679
1080 3 36.8 4.8 8 -11.2981
1081 1 38.4 3.2 6.4 -11.8288
1082 3 40 4.8 8 -11.3047
1083 1 41.6 3.2 6.4 -11.8411
1084 3 43.2 4.8 8 -11.2761
1085 1 44.8 3.2 6.4 -11.8703
1086 3 46.4 4.8 8 -11.2397
1087 1 48 3.2 6.4 -11.8415
1088 3 49.6 4.8 8 -11.2026
1089 1 0 6.4 6.4 -11.8037
1090 2 1.6 8 8 -9.7914
1091 2 3.2 6.4 6.4 -9.79054
1092 2 4.8 8 8 -9.84136
1093 2 6.4 6.4 6.4 -9.85746
1094 1 8 8 8 -11.7698
1095 2 9.6 6.4 6.4 -9.87599
1096 2 11.2 8 8 -9.88358
1097 2 12.8 6.4 6.4 -9.90001
1098 1 14.4 8 8 -11.7816
1099 2 16 6.4 6.4 -9.88143
1100 2 17.6 8 8 -9.86201
1101 1 19.2 6.4 6.4 -11.793
1102 2 20.8 8 8 -9.86594
1103 1 22.4 6.4 6.4 -11.7252