ITEM: TIMESTEP
0
ITEM: NUMBER OF ATOMS
8192
ITEM: BOX BOUNDS pp pp pp
0.0000000000000000e+00 5.1200000000000003e+01
0.0000000000000000e+00 5.1200000000000003e+01
0.0000000000000000e+00 5.1200000000000003e+01
ITEM: ATOMS id type x y z c_eng
1 2 0 0 0 -9.8619
2 2 1.6 1.6 1.6 -9.85724
3 2 3.2 0 0 -9.9264
4 2 4.8 1.6 1.6 -9.87976
5 2 6.4 0 0 -9.89118
6 2 8 1.6 1.6 -9.89577
7 1 9.6 0 0 -11.7548
8 3 11.2 1.6 1.6 -11.3061
9 1 12.8 0 0 -11.7566
10 2 14.4 1.6 1.6 -9.89325
11 1 16 0 0 -11.7768
12 3 17.6 1.6 1.6 -11.3351
13 2 19.2 0 0 -9.84803
14 2 20.8 1.6 1.6 -9.86026
15 1 22.4 0 0 -11.7756
16 3 24 1.6 1.6 -11.352
17 2 25.6 0 0 -9.91155
18 2 27.2 1.6 1.6 -9.90811
19 2 28.8 0 0 -9.87771
20 2 30.4 1.6 1.6 -9.91266
21 4 32 0 0 -13.3775
22 3 33.6 1.6 1.6 -11.3045
23 4 35.2 0 0 -13.3575
24 3 36.8 1.6 1.6 -11.3977
25 3 38.4 0 0 -11.2793
26 2 40 1.6 1.6 -9.83253
27 2 41.6 0 0 -9.82627
28 1 43.2 1.6 1.6 -11.7157
29 1 44.8 0 0 -11.7009
30 2 46.4 1.6 1.6 -9.73578
31 2 48 0 0 -9.81111
32 2 49.6 1.6 1.6 -9.74729
33 1 0 3.2 0 -11.7639
34 2 1.6 4.8 1.6 -9.76293
35 2 3.2 3.2 0 -9.78433
36 1 4.8 4.8 1.6 -11.7532
37 2 6.4 3.2 0 -9.81651
38 1 8 4.8 1.6 -11.7631
39 4 9.6 3.2 0 -13.3748
40 1 11.2 4.8 1.6 -11.8024
41 2 12.8 3.2 0 -9.89526
42 2 14.4 4.8 1.6 -9.85055
43 3 16 3.2 0 -11.3965
44 2 17.6 4.8 1.6 -10.0081
45 2 19.2 3.2 0 -9.99192
46 3 20.8 4.8 1.6 -11.3982
47 1 22.4 3.2 0 -11.8427
48 3 24 4.8 1.6 -11.304
49 4 25.6 3.2 0 -13.3469
50 3 27.2 4.8 1.6 -11.1966
51 1 28.8 3.2 0 -11.7418
52 2 30.4 4.8 1.6 -9.80685
53 3 32 3.2 0 -11.2994
54 1 33.6 4.8 1.6 -11.7943
55 3 35.2 3.2 0 -11.2883
56 2 36.8 4.8 1.6 -9.82116
57 2 38.4 3.2 0 -9.87975
58 1 40 4.8 1.6 -11.7101
59 2 41.6 3.2 0 -9.88682
60 2 43.2 4.8 1.6 -9.90084
61 3 44.8 3.2 0 -11.338
62 1 46.4 4.8 1.6 -11.7403
63 4 48 3.2 0 -13.3683
64 2 49.6 4.8 1.6 -9.69045
65 4 0 6.4 0 -13.3418
66 3 1.6 8 1.6 -11.3017
67 4 3.2 6.4 0 -13.3796
68 3 4.8 8 1.6 -11.3498
69 2 6.4 6.4 0 -9.8681
70 2 8 8 1.6 -9.86902
71 3 9.6 6.4 0 -11.1761
72 1 11.2 8 1.6 -11.7759
73 4 12.8 6.4 0 -13.2518
74 1 14.4 8 1.6 -11.8049
75 2 16 6.4 0 -9.87427
76 1 17.6 8 1.6 -11.8371
77 3 19.2 6.4 0 -11.461
78 2 20.8 8 1.6 -9.89206
79 1 22.4 6.4 0 -11.7713
80 3 24 8 1.6 -11.2328
81 1 25.6 6.4 0 -11.7547
82 3 27.2 8 1.6 -11.295
83 1 28.8 6.4 0 -11.7356
84 2 30.4 8 1.6 -9.87738
85 2 32 6.4 0 -9.84608
86 4 33.6 8 1.6 -13.3373
87 2 35.2 6.4 0 -9.94598
88 4 36.8 8 1.6 -13.3479
89 3 38.4 6.4 0 -11.27
90 1 40 8 1.6 -11.7207
91 3 41.6 6.4 0 -11.3048
92 4 43.2 8 1.6 -13.3353
93 2 44.8 6.4 0 -9.91148
94 2 46.4 8 1.6 -9.78683
95 2 48 6.4 0 -9.83703
96 3 49.6 8 1.6 -11.271
97 1 0 9.6 0 -11.8414
98 2 1.6 11.2 1.6 -9.88076
99 1 3.2 9.6 0 -11.8335
100 3 4.8 11.2 1.6 -11.2946
101 2 6.4 9.6 0 -9.85821
102 2 8 11.2 1.6 -9.8918
103 2 9.6 9.6 0 -9.84431
104 1 11.2 11.2 1.6 -11.7873
105 3 12.8 9.6 0 -11.1947
106 1 14.4 11.2 1.6 -11.8559
107 3 16 9.6 0 -11.2329
108 1 17.6 11.2 1.6 -11.8111
109 3 19.2 9.6 0 -11.3736
110 3 20.8 11.2 1.6 -11.3746
111 1 22.4 9.6 0 -11.763
112 3 24 11.2 1.6 -11.3312
113 1 25.6 9.6 0 -11.7654
114 4 27.2 11.2 1.6 -13.358
115 2 28.8 9.6 0 -9.83792
116 1 30.4 11.2 1.6 -11.8194
117 2 32 9.6 0 -9.88825
118 1 33.6 11.2 1.6 -11.8565
119 3 35.2 9.6 0 -11.4175
120 2 36.8 11.2 1.6 -9.92255
121 2 38.4 9.6 0 -9.90626
122 4 40 11.2 1.6 -13.301
123 4 41.6 9.6 0 -13.2926
124 2 43.2 11.2 1.6 -9.88477
125 1 44.8 9.6 0 -11.7199
126 2 46.4 11.2 1.6 -9.91068
127 1 48 9.6 0 -11.7916
128 3 49.6 11.2 1.6 -11.3145
129 2 0 12.8 0 -9.90161
130 2 1.6 14.4 1.6 -9.87135
131 2 3.2 12.8 0 -9.81129
132 2 4.8 14.4 1.6 -9.89607
133 1 6.4 12.8 0 -11.8207
134 3 8 14.4 1.6 -11.3649
135 2 9.6 12.8 0 -9.80012
136 1 11.2 14.4 1.6 -11.7836
137 3 12.8 12.8 0 -11.2731
138 1 14.4 14.4 1.6 -11.7841
139 2 16 12.8 0 -9.80536
140 1 17.6 14.4 1.6 -11.7819
141 3 19.2 12.8 0 -11.3552
142 2 20.8 14.4 1.6 -9.85671
143 1 22.4 12.8 0 -11.8661
144 2 24 14.4 1.6 -9.84052
145 2 25.6 12.8 0 -9.80289
146 1 27.2 14.4 1.6 -11.8322
147 3 28.8 12.8 0 -11.2744
148 1 30.4 14.4 1.6 -11.8672
149 3 32 12.8 0 -11.24
150 1 33.6 14.4 1.6 -11.8269
151 3 35.2 12.8 0 -11.409
152 4 36.8 14.4 1.6 -13.3697
153 2 38.4 12.8 0 -9.89654
154 1 40 14.4 1.6 -11.7747
155 2 41.6 12.8 0 -9.86593
156 1 43.2 14.4 1.6 -11.7878
157 2 44.8 12.8 0 -9.87342
158 1 46.4 14.4 1.6 -11.7728
159 3 48 12.8 0 -11.3342
160 1 49.6 14.4 1.6 -11.8504
161 3 0 16 0 -11.3394
162 3 1.6 17.6 1.6 -11.3474
163 2 3.2 16 0 -9.89097
164 4 4.8 17.6 1.6 -13.3732
165 2 6.4 16 0 -9.88136
166 2 8 17.6 1.6 -9.88547
167 4 9.6 16 0 -13.4334
168 2 11.2 17.6 1.6 -9.86191
169 3 12.8 16 0 -11.2887
170 1 14.4 17.6 1.6 -11.7296
171 3 16 16 0 -11.1554
172 4 17.6 17.6 1.6 -13.2743
173 2 19.2 16 0 -9.89307
174 2 20.8 17.6 1.6 -9.84654
175 4 22.4 16 0 -13.3257
176 2 24 17.6 1.6 -9.86768
177 2 25.6 16 0 -9.90816
178 1 27.2 17.6 1.6 -11.833
179 3 28.8 16 0 -11.2715
180 1 30.4 17.6 1.6 -11.8203
181 3 32 16 0 -11.2019
182 1 33.6 17.6 1.6 -11.7585
183 2 35.2 16 0 -9.84439
184 2 36.8 17.6 1.6 -9.83939
185 1 38.4 16 0 -11.7445
186 3 40 17.6 1.6 -11.4155
187 3 41.6 16 0 -11.28
188 2 43.2 17.6 1.6 -9.85899
189 3 44.8 16 0 -11.3226
190 2 46.4 17.6 1.6 -9.93633
191 3 48 16 0 -11.3892
192 3 49.6 17.6 1.6 -11.4103
193 3 0 19.2 0 -11.3683
194 2 1.6 20.8 1.6 -9.95545
195 2 3.2 19.2 0 -9.93893
196 3 4.8 20.8 1.6 -11.3336
197 2 6.4 19.2 0 -9.82384
198 2 8 20.8 1.6 -9.77899
199 1 9.6 19.2 0 -11.7709
200 2 11.2 20.8 1.6 -9.78352
201 2 12.8 19.2 0 -9.80434
202 1 14.4 20.8 1.6 -11.7048
203 2 16 19.2 0 -9.7595
204 2 17.6 20.8 1.6 -9.81179
205 1 19.2 19.2 0 -11.7969
206 3 20.8 20.8 1.6 -11.3305
207 1 22.4 19.2 0 -11.8039
208 3 24 20.8 1.6 -11.2887
209 3 25.6 19.2 0 -11.3277
210 4 27.2 20.8 1.6 -13.3746
211 3 28.8 19.2 0 -11.2702
212 1 30.4 20.8 1.6 -11.769
213 2 32 19.2 0 -9.77886
214 1 33.6 20.8 1.6 -11.7126
215 4 35.2 19.2 0 -13.3086
216 1 36.8 20.8 1.6 -11.7686
217 2 38.4 19.2 0 -9.90253
218 3 40 20.8 1.6 -11.3707
219 4 41.6 19.2 0 -13.4594
220 2 43.2 20.8 1.6 -9.90977
221 4 44.8 19.2 0 -13.4552
222 2 46.4 20.8 1.6 -9.86713
223 4 48 19.2 0 -13.3814
224 3 49.6 20.8 1.6 -11.331
225 3 0 22.4 0 -11.3204
226 1 1.6 24 1.6 -11.834
227 2 3.2 22.4 0 -9.87137
228 2 4.8 24 1.6 -9.90334
229 1 6.4 22.4 0 -11.8276
230 3 8 24 1.6 -11.1608
231 1 9.6 22.4 0 -11.7816
232 3 11.2 24 1.6 -11.3478
233 2 12.8 22.4 0 -9.8896
234 2 14.4 24 1.6 -9.88908
235 2 16 22.4 0 -9.85438
236 2 17.6 24 1.6 -9.9089
237 1 19.2 22.4 0 -11.8178
238 3 20.8 24 1.6 -11.2372
239 1 22.4 22.4 0 -11.8029
240 2 24 24 1.6 -9.85886
241 2 25.6 22.4 0 -9.88675
242 2 27.2 24 1.6 -9.81345
243 3 28.8 22.4 0 -11.234
244 1 30.4 24 1.6 -11.7792
245 3 32 22.4 0 -11.2572
246 1 33.6 24 1.6 -11.7303
247 2 35.2 22.4 0 -9.76542
248 1 36.8 24 1.6 -11.6955
249 2 38.4 22.4 0 -9.93555
250 1 40 24 1.6 -11.8224
251 3 41.6 22.4 0 -11.3704
252 1 43.2 24 1.6 -11.8047
253 2 44.8 22.4 0 -9.87596
254 2 46.4 24 1.6 -9.89978
255 4 48 22.4 0 -13.3781
256 2 49.6 24 1.6 -9.8949
257 3 0 25.6 0 -11.2702
259 2 3.2 25.6 0 -9.86023
261 1 6.4 25.6 0 -11.7431
263 1 9.6 25.6 0 -11.7656
265 2 12.8 25.6 0 -9.84792
267 2 16 25.6 0 -9.85444
269 1 19.2 25.6 0 -11.7895
271 1 22.4 25.6 0 -11.8651
273 3 25.6 25.6 0 -11.4357
275 3 28.8 25.6 0 -11.331
277 3 32 25.6 0 -11.4281
279 1 35.2 25.6 0 -11.7596
281 2 38.4 25.6 0 -9.83021
283 3 41.6 25.6 0 -11.3664
285 4 44.8 25.6 0 -13.4017
287 3 48 25.6 0 -11.3245
258 1 1.6 27.2 1.6 -11.7877
289 3 0 28.8 0 -11.2692
260 2 4.8 27.2 1.6 -9.85829
291 2 3.2 28.8 0 -9.84964
262 2 8 27.2 1.6 -9.66799
293 1 6.4 28.8 0 -11.7273
264 2 11.2 27.2 1.6 -9.79054
295 2 9.6 28.8 0 -9.74915
266 1 14.4 27.2 1.6 -11.7477
297 2 12.8 28.8 0 -9.81723
268 2 17.6 27.2 1.6 -9.84235
299 2 16 28.8 0 -9.83817
270 3 20.8 27.2 1.6 -11.2608
301 2 19.2 28.8 0 -9.88181
272 3 24 27.2 1.6 -11.4571
303 2 22.4 28.8 0 -9.91215
305 3 25.6 28.8 0 -11.4545
274 2 27.2 27.2 1.6 -9.90963
307 2 28.8 28.8 0 -9.93913
276 3 30.4 27.2 1.6 -11.3573
309 3 32 28.8 0 -11.4425
278 2 33.6 27.2 1.6 -9.93349
311 3 35.2 28.8 0 -11.3609
280 2 36.8 27.2 1.6 -9.86102
313 1 38.4 28.8 0 -11.8082
282 2 40 27.2 1.6 -9.91774
315 2 41.6 28.8 0 -9.8801
284 3 43.2 27.2 1.6 -11.3454
317 1 44.8 28.8 0 -11.749
286 2 46.4 27.2 1.6 -9.92056
319 2 48 28.8 0 -9.86182
288 1 49.6 27.2 1.6 -11.8598
290 1 1.6 30.4 1.6 -11.7936
321 3 0 32 0 -11.2452
292 2 4.8 30.4 1.6 -9.81085
323 2 3.2 32 0 -9.8657
294 2 8 30.4 1.6 -9.69951
325 1 6.4 32 0 -11.7472
296 2 11.2 30.4 1.6 -9.82232
327 1 9.6 32 0 -11.72
298 2 14.4 30.4 1.6 -9.84124
329 1 12.8 32 0 -11.726
300 3 17.6 30.4 1.6 -11.3212
331 1 16 32 0 -11.742
302 3 20.8 30.4 1.6 -11.3652
333 1 19.2 32 0 -11.7675
304 3 24 30.4 1.6 -11.3455
335 4 22.4 32 0 -13.363
337 2 25.6 32 0 -9.85009
306 2 27.2 30.4 1.6 -9.87831
339 1 28.8 32 0 -11.7858
308 3 30.4 30.4 1.6 -11.3168
341 4 32 32 0 -13.3074
310 4 33.6 30.4 1.6 -13.4037
343 2 35.2 32 0 -9.91119
312 4 36.8 30.4 1.6 -13.4049
345 2 38.4 32 0 -9.81806
314 2 40 30.4 1.6 -9.8575
347 1 41.6 32 0 -11.8282
316 2 43.2 30.4 1.6 -9.78291
349 1 44.8 32 0 -11.7164
318 2 46.4 30.4 1.6 -9.72451
351 1 48 32 0 -11.7009
320 1 49.6 30.4 1.6 -11.7661
322 2 1.6 33.6 1.6 -9.88382
353 4 0 35.2 0 -13.357
324 3 4.8 33.6 1.6 -11.26
355 1 3.2 35.2 0 -11.8318
326 2 8 33.6 1.6 -9.83385
357 1 6.4 35.2 0 -11.8308
328 2 11.2 33.6 1.6 -9.88085
359 4 9.6 35.2 0 -13.354
330 2 14.4 33.6 1.6 -9.86044
361 3 12.8 35.2 0 -11.4236
332 2 17.6 33.6 1.6 -9.88611
363 3 16 35.2 0 -11.3127
334 3 20.8 33.6 1.6 -11.3093
365 2 19.2 35.2 0 -9.86667
336 2 24 33.6 1.6 -9.93038
367 2 22.4 35.2 0 -9.86067
369 2 25.6 35.2 0 -9.83123
338 2 27.2 33.6 1.6 -9.86798
371 2 28.8 35.2 0 -9.75449
340 3 30.4 33.6 1.6 -11.2336
373 2 32 35.2 0 -9.79875
342 1 33.6 33.6 1.6 -11.7888
375 3 35.2 35.2 0 -11.3369
344 2 36.8 33.6 1.6 -9.87819
377 4 38.4 35.2 0 -13.4308
346 2 40 33.6 1.6 -9.8897
379 2 41.6 35.2 0 -9.83404
348 3 43.2 33.6 1.6 -11.2932
381 1 44.8 35.2 0 -11.8545
350 3 46.4 33.6 1.6 -11.2714
383 1 48 35.2 0 -11.8146
352 2 49.6 33.6 1.6 -9.84301
354 3 1.6 36.8 1.6 -11.199
385 1 0 38.4 0 -11.8279
356 3 4.8 36.8 1.6 -11.3062
387 1 3.2 38.4 0 -11.8411
358 2 8 36.8 1.6 -9.86302
389 1 6.4 38.4 0 -11.8404
360 2 11.2 36.8 1.6 -9.89969
391 1 9.6 38.4 0 -11.8235
362 1 14.4 36.8 1.6 -11.8199
393 3 12.8 38.4 0 -11.3252
364 1 17.6 36.8 1.6 -11.7749
395 2 16 38.4 0 -9.8901
366 1 20.8 36.8 1.6 -11.8023
397 3 19.2 38.4 0 -11.2685
368 1 24 36.8 1.6 -11.8001
399 3 22.4 38.4 0 -11.2387
401 3 25.6 38.4 0 -11.3192
370 1 27.2 36.8 1.6 -11.7133
403 2 28.8 38.4 0 -9.808
372 1 30.4 36.8 1.6 -11.7061
405 2 32 38.4 0 -9.80965
374 4 33.6 36.8 1.6 -13.3137
407 2 35.2 38.4 0 -9.9013
376 4 36.8 36.8 1.6 -13.3683
409 4 38.4 38.4 0 -13.2527
378 1 40 36.8 1.6 -11.7077
411 2 41.6 38.4 0 -9.88697
380 2 43.2 36.8 1.6 -9.86387
413 1 44.8 38.4 0 -11.8411
382 3 46.4 36.8 1.6 -11.2019
415 1 48 38.4 0 -11.8257
384 2 49.6 36.8 1.6 -9.80634
386 3 1.6 40 1.6 -11.2408
417 1 0 41.6 0 -11.8816
388 3 4.8 40 1.6 -11.3596
419 1 3.2 41.6 0 -11.83
390 3 8 40 1.6 -11.3606
421 4 6.4 41.6 0 -13.3854
392 2 11.2 40 1.6 -9.94753
423 2 9.6 41.6 0 -9.91054
394 2 14.4 40 1.6 -9.85295
425 2 12.8 41.6 0 -9.96835
396 1 17.6 40 1.6 -11.7543
427 2 16 41.6 0 -9.84193
398 1 20.8 40 1.6 -11.8248
429 3 19.2 41.6 0 -11.2899
400 4 24 40 1.6 -13.4837
431 3 22.4 41.6 0 -11.3943
433 3 25.6 41.6 0 -11.3859
402 3 27.2 40 1.6 -11.3651
435 1 28.8 41.6 0 -11.7718
404 2 30.4 40 1.6 -9.85814
437 1 32 41.6 0 -11.7498
406 2 33.6 40 1.6 -9.90481
439 1 35.2 41.6 0 -11.8264
408 2 36.8 40 1.6 -9.81308
441 1 38.4 41.6 0 -11.7366
410 1 40 40 1.6 -11.6989
443 2 41.6 41.6 0 -9.91183
412 3 43.2 40 1.6 -11.3494
445 1 44.8 41.6 0 -11.8589
414 3 46.4 40 1.6 -11.239
447 4 48 41.6 0 -13.3628
416 3 49.6 40 1.6 -11.1991
418 3 1.6 43.2 1.6 -11.3563
449 2 0 44.8 0 -9.82175
420 2 4.8 43.2 1.6 -9.84172
451 4 3.2 44.8 0 -13.3636
422 4 8 43.2 1.6 -13.3813
453 1 6.4 44.8 0 -11.7036
424 1 11.2 43.2 1.6 -11.8839
455 3 9.6 44.8 0 -11.3959
426 1 14.4 43.2 1.6 -11.8084
457 3 12.8 44.8 0 -11.4159
428 1 17.6 43.2 1.6 -11.7239
459 3 16 44.8 0 -11.3178
430 1 20.8 43.2 1.6 -11.8205
461 2 19.2 44.8 0 -9.85862
432 3 24 43.2 1.6 -11.3575
463 3 22.4 44.8 0 -11.3269
465 2 25.6 44.8 0 -9.97023
434 2 27.2 43.2 1.6 -9.9529
467 1 28.8 44.8 0 -11.7306
436 3 30.4 43.2 1.6 -11.2626
469 4 32 44.8 0 -13.3215
438 3 33.6 43.2 1.6 -11.48
471 3 35.2 44.8 0 -11.4258
440 3 36.8 43.2 1.6 -11.394
473 3 38.4 44.8 0 -11.3664
442 4 40 43.2 1.6 -13.4182
475 3 41.6 44.8 0 -11.387
444 2 43.2 43.2 1.6 -9.88171
477 2 44.8 44.8 0 -9.80895
446 3 46.4 43.2 1.6 -11.2999
479 1 48 44.8 0 -11.7793
448 3 49.6 43.2 1.6 -11.3008
450 2 1.6 46.4 1.6 -9.94464
481 2 0 48 0 -9.90464
452 2 4.8 46.4 1.6 -9.88116
483 2 3.2 48 0 -9.9369
454 2 8 46.4 1.6 -9.87776
485 2 6.4 48 0 -9.83513
456 3 11.2 46.4 1.6 -11.4112
487 2 9.6 48 0 -9.91008
458 1 14.4 46.4 1.6 -11.8356
489 2 12.8 48 0 -9.9131
460 1 17.6 46.4 1.6 -11.7785
491 2 16 48 0 -9.89078
462 1 20.8 46.4 1.6 -11.7433
493 3 19.2 48 0 -11.3262
464 4 24 46.4 1.6 -13.4743
495 3 22.4 48 0 -11.3756
497 3 25.6 48 0 -11.3867
466 2 27.2 46.4 1.6 -9.86975
499 2 28.8 48 0 -9.88883
468 1 30.4 46.4 1.6 -11.7605
501 4 32 48 0 -13.3144
470 3 33.6 46.4 1.6 -11.3466
503 2 35.2 48 0 -9.85323
472 1 36.8 46.4 1.6 -11.8537
505 2 38.4 48 0 -9.84602
474 4 40 46.4 1.6 -13.3052
507 3 41.6 48 0 -11.2778
476 1 43.2 46.4 1.6 -11.7422
509 4 44.8 48 0 -13.3192
478 2 46.4 46.4 1.6 -9.79542
511 1 48 48 0 -11.7301
480 4 49.6 46.4 1.6 -13.2292
482 2 1.6 49.6 1.6 -9.92058
484 4 4.8 49.6 1.6 -13.4198
486 4 8 49.6 1.6 -13.4156
488 2 11.2 49.6 1.6 -9.91605
490 2 14.4 49.6 1.6 -9.81214
492 2 17.6 49.6 1.6 -9.88615
494 2 20.8 49.6 1.6 -9.87978
496 3 24 49.6 1.6 -11.35
498 4 27.2 49.6 1.6 -13.4775
500 2 30.4 49.6 1.6 -9.87254
502 2 33.6 49.6 1.6 -9.91396
504 2 36.8 49.6 1.6 -9.85071
506 1 40 49.6 1.6 -11.8262
508 4 43.2 49.6 1.6 -13.2712
510 3 46.4 49.6 1.6 -11.1461
512 2 49.6 49.6 1.6 -9.83946
513 1 0 0 3.2 -11.7219
514 2 1.6 1.6 4.8 -9.86404
515 2 3.2 0 3.2 -9.89821
516 2 4.8 1.6 4.8 -9.90964
517 3 6.4 0 3.2 -11.4147
518 4 8 1.6 4.8 -13.46
519 2 9.6 0 3.2 -9.96609
520 2 11.2 1.6 4.8 -9.98493
521 1 12.8 0 3.2 -11.8155
522 3 14.4 1.6 4.8 -11.3274
523 1 16 0 3.2 -11.8112
524 3 17.6 1.6 4.8 -11.3349
525 1 19.2 0 3.2 -11.7879
526 2 20.8 1.6 4.8 -9.80919
527 1 22.4 0 3.2 -11.7976
528 3 24 1.6 4.8 -11.2982
529 2 25.6 0 3.2 -9.86819
530 3 27.2 1.6 4.8 -11.3555
531 2 28.8 0 3.2 -9.92615
532 2 30.4 1.6 4.8 -9.93736
533 4 32 0 3.2 -13.4196
534 3 33.6 1.6 4.8 -11.3292
535 1 35.2 0 3.2 -11.8599
536 3 36.8 1.6 4.8 -11.2684
537 2 38.4 0 3.2 -9.90226
538 3 40 1.6 4.8 -11.348
539 3 41.6 0 3.2 -11.2836
540 2 43.2 1.6 4.8 -9.91954
541 1 44.8 0 3.2 -11.6904
542 2 46.4 1.6 4.8 -9.81949
543 1 48 0 3.2 -11.6692
544 2 49.6 1.6 4.8 -9.7765
545 1 0 3.2 3.2 -11.639
546 4 1.6 4.8 4.8 -13.3168
547 2 3.2 3.2 3.2 -9.9027
548 2 4.8 4.8 4.8 -9.82875
549 3 6.4 3.2 3.2 -11.372
550 1 8 4.8 4.8 -11.705
551 3 9.6 3.2 3.2 -11.3316
552 3 11.2 4.8 4.8 -11.3078
553 2 12.8 3.2 3.2 -9.97589
554 2 14.4 4.8 4.8 -9.9856
555 2 16 3.2 3.2 -9.93348
556 2 17.6 4.8 4.8 -9.93103
557 4 19.2 3.2 3.2 -13.4692
558 2 20.8 4.8 4.8 -9.94899
559 4 22.4 3.2 3.2 -13.3215
560 3 24 4.8 4.8 -11.3376
561 4 25.6 3.2 3.2 -13.4238
562 3 27.2 4.8 4.8 -11.2767
563 1 28.8 3.2 3.2 -11.8064
564 3 30.4 4.8 4.8 -11.2294
565 2 32 3.2 3.2 -9.85169
566 2 33.6 4.8 4.8 -9.75988
567 1 35.2 3.2 3.2 -11.7799
568 2 36.8 4.8 4.8 -9.73488
569 1 38.4 3.2 3.2 -11.7387
570 2 40 4.8 4.8 -9.88127
571 2 41.6 3.2 3.2 -9.89227
572 3 43.2 4.8 4.8 -11.4282
573 2 44.8 3.2 3.2 -9.83918
574 3 46.4 4.8 4.8 -11.3075
575 1 48 3.2 3.2 -11.6529
576 2 49.6 4.8 4.8 -9.80361
577 1 0 6.4 3.2 -11.7691
578 3 1.6 8 4.8 -11.2734
579 2 3.2 6.4 3.2 -9.81617
580 3 4.8 8 4.8 -11.2978
581 2 6.4 6.4 3.2 -9.84232
582 3 8 8 4.8 -11.2599
583 2 9.6 6.4 3.2 -9.89233
584 2 11.2 8 4.8 -9.91528
585 3 12.8 6.4 3.2 -11.3612
586 2 14.4 8 4.8 -9.91977
587 3 16 6.4 3.2 -11.4318
588 1 17.6 8 4.8 -11.8564
589 3 19.2 6.4 3.2 -11.407
590 3 20.8 8 4.8 -11.387
591 1 22.4 6.4 3.2 -11.8718
592 3 24 8 4.8 -11.3934
593 1 25.6 6.4 3.2 -11.8822
594 3 27.2 8 4.8 -11.3534
595 1 28.8 6.4 3.2 -11.8176
596 2 30.4 8 4.8 -9.8816
597 2 32 6.4 3.2 -9.87608
598 2 33.6 8 4.8 -9.84242
599 2 35.2 6.4 3.2 -9.73774
600 1 36.8 8 4.8 -11.7109
601 4 38.4 6.4 3.2 -13.2251
602 2 40 8 4.8 -9.82904
603 2 41.6 6.4 3.2 -9.89901
604 4 43.2 8 4.8 -13.4495
605 3 44.8 6.4 3.2 -11.3908
606 3 46.4 8 4.8 -11.3216
607 1 48 6.4 3.2 -11.7426
608 3 49.6 8 4.8 -11.2372
609 1 0 9.6 3.2 -11.7862
610 2 1.6 11.2 4.8 -9.85408
611 1 3.2 9.6 3.2 -11.839
612 3 4.8 11.2 4.8 -11.3025
613 1 6.4 9.6 3.2 -11.8723
614 3 8 11.2 4.8 -11.3616
615 2 9.6 9.6 3.2 -9.86686
616 2 11.2 11.2 4.8 -9.85724
617 3 12.8 9.6 3.2 -11.3874
618 4 14.4 11.2 4.8 -13.4718
619 3 16 9.6 3.2 -11.3012
620 1 17.6 11.2 4.8 -11.7928
621 2 19.2 9.6 3.2 -9.91488
622 3 20.8 11.2 4.8 -11.3142
623 1 22.4 9.6 3.2 -11.8801
624 3 24 11.2 4.8 -11.359
625 2 25.6 9.6 3.2 -9.86248
626 2 27.2 11.2 4.8 -9.91931
627 2 28.8 9.6 3.2 -9.91598
628 1 30.4 11.2 4.8 -11.7959
629 3 32 9.6 3.2 -11.3426
630 2 33.6 11.2 4.8 -9.84138
631 2 35.2 9.6 3.2 -9.93769
632 2 36.8 11.2 4.8 -9.84477
633 2 38.4 9.6 3.2 -9.85823
634 2 40 11.2 4.8 -9.91599
635 2 41.6 9.6 3.2 -9.85294
636 3 43.2 11.2 4.8 -11.3743
637 2 44.8 9.6 3.2 -9.87322
638 3 46.4 11.2 4.8 -11.4033
639 1 48 9.6 3.2 -11.815
640 2 49.6 11.2 4.8 -9.91978
641 2 0 12.8 3.2 -9.9238
642 4 1.6 14.4 4.8 -13.4023
643 2 3.2 12.8 3.2 -9.85006
644 2 4.8 14.4 4.8 -9.91297
645 1 6.4 12.8 3.2 -11.8426
646 3 8 14.4 4.8 -11.4878
647 2 9.6 12.8 3.2 -9.88932
648 1 11.2 14.4 4.8 -11.8498
649 3 12.8 12.8 3.2 -11.2983
650 2 14.4 14.4 4.8 -9.82909
651 3 16 12.8 3.2 -11.2577
652 2 17.6 14.4 4.8 -9.82504
653 2 19.2 12.8 3.2 -9.87955
654 2 20.8 14.4 4.8 -9.88475
655 1 22.4 12.8 3.2 -11.8103
656 3 24 14.4 4.8 -11.3528
657 2 25.6 12.8 3.2 -9.9118
658 3 27.2 14.4 4.8 -11.4034
659 3 28.8 12.8 3.2 -11.3798
660 2 30.4 14.4 4.8 -9.8996
661 3 32 12.8 3.2 -11.2772
662 1 33.6 14.4 4.8 -11.7928
663 3 35.2 12.8 3.2 -11.3872
664 1 36.8 14.4 4.8 -11.7824
665 3 38.4 12.8 3.2 -11.3133
666 1 40 14.4 4.8 -11.7675
667 2 41.6 12.8 3.2 -9.90057
668 2 43.2 14.4 4.8 -9.86158
669 2 44.8 12.8 3.2 -9.90249
670 4 46.4 14.4 4.8 -13.362
671 2 48 12.8 3.2 -9.8983
672 2 49.6 14.4 4.8 -9.89847
673 2 0 16 3.2 -9.84921
674 2 1.6 17.6 4.8 -9.82109
675 1 3.2 16 3.2 -11.7647
676 2 4.8 17.6 4.8 -9.84971
677 2 6.4 16 3.2 -9.87208
678 3 8 17.6 4.8 -11.4754
679 2 9.6 16 3.2 -9.90919
680 3 11.2 17.6 4.8 -11.3834
681 2 12.8 16 3.2 -9.86924
682 4 14.4 17.6 4.8 -13.251
683 2 16 16 3.2 -9.76329
684 1 17.6 17.6 4.8 -11.7302
685 2 19.2 16 3.2 -9.866
686 2 20.8 17.6 4.8 -9.89896
687 1 22.4 16 3.2 -11.7914
688 3 24 17.6 4.8 -11.3819
689 2 25.6 16 3.2 -9.87532
690 2 27.2 17.6 4.8 -9.93818
691 3 28.8 16 3.2 -11.4331
692 3 30.4 17.6 4.8 -11.3542
693 3 32 16 3.2 -11.3292
694 1 33.6 17.6 4.8 -11.8258
695 3 35.2 16 3.2 -11.3061
696 1 36.8 17.6 4.8 -11.8519
697 3 38.4 16 3.2 -11.3228
698 4 40 17.6 4.8 -13.3194
699 3 41.6 16 3.2 -11.3522
700 1 43.2 17.6 4.8 -11.8018
701 2 44.8 16 3.2 -9.89674
702 2 46.4 17.6 4.8 -9.87635
703 2 48 16 3.2 -9.87064
704 3 49.6 17.6 4.8 -11.3208
705 1 0 19.2 3.2 -11.8694
706 3 1.6 20.8 4.8 -11.2569
707 4 3.2 19.2 3.2 -13.2866
708 2 4.8 20.8 4.8 -9.91475
709 1 6.4 19.2 3.2 -11.784
710 3 8 20.8 4.8 -11.22
711 1 9.6 19.2 3.2 -11.7514
712 2 11.2 20.8 4.8 -9.86687
713 2 12.8 19.2 3.2 -9.80478
714 1 14.4 20.8 4.8 -11.7475
715 2 16 19.2 3.2 -9.70025
716 1 17.6 20.8 4.8 -11.785
717 2 19.2 19.2 3.2 -9.8666
718 3 20.8 20.8 4.8 -11.3508
719 4 22.4 19.2 3.2 -13.3419
720 3 24 20.8 4.8 -11.3373
721 4 25.6 19.2 3.2 -13.4364
722 2 27.2 20.8 4.8 -9.87636
723 3 28.8 19.2 3.2 -11.3672
724 2 30.4 20.8 4.8 -9.94154
725 2 32 19.2 3.2 -9.84117
726 3 33.6 20.8 4.8 -11.2826
727 3 35.2 19.2 3.2 -11.2626
728 1 36.8 20.8 4.8 -11.8599
729 3 38.4 19.2 3.2 -11.4095
730 1 40 20.8 4.8 -11.8128
731 4 41.6 19.2 3.2 -13.3497
732 1 43.2 20.8 4.8 -11.7103
733 2 44.8 19.2 3.2 -9.81528
734 4 46.4 20.8 4.8 -13.2642
735 1 48 19.2 3.2 -11.7935
736 2 49.6 20.8 4.8 -9.84744
737 2 0 22.4 3.2 -9.90529
738 3 1.6 24 4.8 -11.4291
739 2 3.2 22.4 3.2 -9.92569
740 3 4.8 24 4.8 -11.4433
741 4 6.4 22.4 3.2 -13.3779
742 2 8 24 4.8 -9.86472
743 1 9.6 22.4 3.2 -11.7763
744 2 11.2 24 4.8 -9.88281
745 2 12.8 22.4 3.2 -9.872
746 2 14.4 24 4.8 -9.86844
747 2 16 22.4 3.2 -9.88267
748 2 17.6 24 4.8 -9.8656
749 2 19.2 22.4 3.2 -9.83209
750 3 20.8 24 4.8 -11.2677
751 1 22.4 22.4 3.2 -11.8505
752 3 24 24 4.8 -11.2364
753 1 25.6 22.4 3.2 -11.769
754 2 27.2 24 4.8 -9.84563
755 2 28.8 22.4 3.2 -9.83767
756 2 30.4 24 4.8 -9.87583
757 2 32 22.4 3.2 -9.82583
758 3 33.6 24 4.8 -11.3059
759 2 35.2 22.4 3.2 -9.84972
760 2 36.8 24 4.8 -9.84514
761 3 38.4 22.4 3.2 -11.2614
762 1 40 24 4.8 -11.8299
763 3 41.6 22.4 3.2 -11.2959
764 1 43.2 24 4.8 -11.7924
765 2 44.8 22.4 3.2 -9.84215
766 2 46.4 24 4.8 -9.88079
767 4 48 22.4 3.2 -13.3567
768 3 49.6 24 4.8 -11.4012
769 2 0 25.6 3.2 -9.9205
771 3 3.2 25.6 3.2 -11.4187
773 4 6.4 25.6 3.2 -13.2999
775 1 9.6 25.6 3.2 -11.7157
777 2 12.8 25.6 3.2 -9.9126
779 2 16 25.6 3.2 -9.82569
781 1 19.2 25.6 3.2 -11.7582
783 1 22.4 25.6 3.2 -11.7973
785 4 25.6 25.6 3.2 -13.3391
787 1 28.8 25.6 3.2 -11.7734
789 2 32 25.6 3.2 -9.84079
791 2 35.2 25.6 3.2 -9.82834
793 2 38.4 25.6 3.2 -9.86962
795 3 41.6 25.6 3.2 -11.352
797 2 44.8 25.6 3.2 -9.85758
799 2 48 25.6 3.2 -9.97506
770 2 1.6 27.2 4.8 -9.97395
801 3 0 28.8 3.2 -11.2932
772 3 4.8 27.2 4.8 -11.3592
803 2 3.2 28.8 3.2 -9.8983
774 4 8 27.2 4.8 -13.1627
805 1 6.4 28.8 3.2 -11.6437
776 2 11.2 27.2 4.8 -9.82549
807 1 9.6 28.8 3.2 -11.6562
778 2 14.4 27.2 4.8 -9.83668
809 2 12.8 28.8 3.2 -9.84461
780 2 17.6 27.2 4.8 -9.79146
811 4 16 28.8 3.2 -13.3735
782 2 20.8 27.2 4.8 -9.7496
813 1 19.2 28.8 3.2 -11.8034
784 3 24 27.2 4.8 -11.2689
815 1 22.4 28.8 3.2 -11.8502
817 4 25.6 28.8 3.2 -13.3727
786 2 27.2 27.2 4.8 -9.8411
819 1 28.8 28.8 3.2 -11.7718
788 3 30.4 27.2 4.8 -11.1937
821 1 32 28.8 3.2 -11.8077
790 2 33.6 27.2 4.8 -9.89243
823 2 35.2 28.8 3.2 -9.91056
792 2 36.8 27.2 4.8 -9.87973
825 2 38.4 28.8 3.2 -9.81931
794 1 40 27.2 4.8 -11.8175
827 2 41.6 28.8 3.2 -9.89991
796 2 43.2 27.2 4.8 -9.86107
829 1 44.8 28.8 3.2 -11.7321
798 2 46.4 27.2 4.8 -9.88025
831 3 48 28.8 3.2 -11.2755
800 2 49.6 27.2 4.8 -9.86496
802 2 1.6 30.4 4.8 -9.91845
833 2 0 32 3.2 -9.90191
804 2 4.8 30.4 4.8 -9.85622
835 2 3.2 32 3.2 -9.89388
806 2 8 30.4 4.8 -9.71711
837 1 6.4 32 3.2 -11.7154
808 1 11.2 30.4 4.8 -11.7138
839 2 9.6 32 3.2 -9.78725
810 2 14.4 30.4 4.8 -9.89346
841 2 12.8 32 3.2 -9.84148
812 2 17.6 30.4 4.8 -9.93069
843 2 16 32 3.2 -9.84379
814 3 20.8 30.4 4.8 -11.1955
845 1 19.2 32 3.2 -11.8474
816 3 24 30.4 4.8 -11.2775
847 1 22.4 32 3.2 -11.868
849 1 25.6 32 3.2 -11.8326
818 3 27.2 30.4 4.8 -11.2313
851 1 28.8 32 3.2 -11.812
820 2 30.4 30.4 4.8 -9.85799
853 2 32 32 3.2 -9.87224
822 2 33.6 30.4 4.8 -9.8729
855 3 35.2 32 3.2 -11.3564
824 1 36.8 30.4 4.8 -11.7899
857 3 38.4 32 3.2 -11.316
826 1 40 30.4 4.8 -11.7716
859 2 41.6 32 3.2 -9.85803
828 4 43.2 30.4 4.8 -13.2755
861 1 44.8 32 3.2 -11.7207
830 2 46.4 30.4 4.8 -9.78731
863 2 48 32 3.2 -9.84001
832 1 49.6 30.4 4.8 -11.783
834 3 1.6 33.6 4.8 -11.3964
865 4 0 35.2 3.2 -13.3742
836 4 4.8 33.6 4.8 -13.4193
867 1 3.2 35.2 3.2 -11.8425
838 4 8 33.6 4.8 -13.3069
869 2 6.4 35.2 3.2 -9.84156
840 1 11.2 33.6 4.8 -11.7841
871 3 9.6 35.2 3.2 -11.337
842 1 14.4 33.6 4.8 -11.7991
873 3 12.8 35.2 3.2 -11.3162
844 2 17.6 33.6 4.8 -9.87643
875 2 16 35.2 3.2 -9.83504
846 3 20.8 33.6 4.8 -11.2814
877 2 19.2 35.2 3.2 -9.84951
848 3 24 33.6 4.8 -11.3565
879 3 22.4 35.2 3.2 -11.3233
881 2 25.6 35.2 3.2 -9.86822
850 3 27.2 33.6 4.8 -11.3676
883 2 28.8 35.2 3.2 -9.82499
852 2 30.4 33.6 4.8 -9.91443
885 2 32 35.2 3.2 -9.87015
854 4 33.6 33.6 4.8 -13.4171
887 3 35.2 35.2 3.2 -11.3607
856 1 36.8 33.6 4.8 -11.8503
889 3 38.4 35.2 3.2 -11.2596
858 1 40 33.6 4.8 -11.8152
891 2 41.6 35.2 3.2 -9.88203
860 2 43.2 33.6 4.8 -9.82757
893 1 44.8 35.2 3.2 -11.7997
862 3 46.4 33.6 4.8 -11.2958
895 4 48 35.2 3.2 -13.3535
864 2 49.6 33.6 4.8 -9.93297
866 2 1.6 36.8 4.8 -9.90526
897 1 0 38.4 3.2 -11.7905
868 3 4.8 36.8 4.8 -11.2732
899 1 3.2 38.4 3.2 -11.7807
870 1 8 36.8 4.8 -11.7451
901 4 6.4 38.4 3.2 -13.3862
872 4 11.2 36.8 4.8 -13.2992
903 2 9.6 38.4 3.2 -9.86117
874 1 14.4 36.8 4.8 -11.7566
905 4 12.8 38.4 3.2 -13.4295
876 1 17.6 36.8 4.8 -11.7583
907 3 16 38.4 3.2 -11.1537
878 1 20.8 36.8 4.8 -11.7448
909 3 19.2 38.4 3.2 -11.1673
880 2 24 36.8 4.8 -9.8647
911 3 22.4 38.4 3.2 -11.3331
913 2 25.6 38.4 3.2 -9.88852
882 1 27.2 36.8 4.8 -11.778
915 2 28.8 38.4 3.2 -9.80132
884 1 30.4 36.8 4.8 -11.7364
917 2 32 38.4 3.2 -9.78438
886 4 33.6 36.8 4.8 -13.339
919 2 35.2 38.4 3.2 -9.84198
888 1 36.8 36.8 4.8 -11.8127
921 2 38.4 38.4 3.2 -9.76487
890 1 40 36.8 4.8 -11.8135
923 2 41.6 38.4 3.2 -9.88871
892 2 43.2 36.8 4.8 -9.8933
925 1 44.8 38.4 3.2 -11.8148
894 3 46.4 36.8 4.8 -11.3268
927 1 48 38.4 3.2 -11.8121
896 3 49.6 36.8 4.8 -11.3066
898 2 1.6 40 4.8 -9.86053
929 1 0 41.6 3.2 -11.7893
900 2 4.8 40 4.8 -9.89623
931 4 3.2 41.6 3.2 -13.4054
902 1 8 40 4.8 -11.7666
933 3 6.4 41.6 3.2 -11.3359
904 2 11.2 40 4.8 -9.90943
935 3 9.6 41.6 3.2 -11.4245
906 2 14.4 40 4.8 -9.89425
937 3 12.8 41.6 3.2 -11.3423
908 1 17.6 40 4.8 -11.7603
939 4 16 41.6 3.2 -13.3256
910 1 20.8 40 4.8 -11.8202
941 2 19.2 41.6 3.2 -9.75276
912 2 24 40 4.8 -9.87401
943 3 22.4 41.6 3.2 -11.3742
945 4 25.6 41.6 3.2 -13.4965
914 2 27.2 40 4.8 -9.85117
947 2 28.8 41.6 3.2 -9.89919
916 1 30.4 40 4.8 -11.7864
949 3 32 41.6 3.2 -11.3401
918 1 33.6 40 4.8 -11.7739
951 2 35.2 41.6 3.2 -9.91517
920 1 36.8 40 4.8 -11.7957
953 2 38.4 41.6 3.2 -9.89828
922 2 40 40 4.8 -9.86761
955 3 41.6 41.6 3.2 -11.3842
924 3 43.2 40 4.8 -11.4645
957 1 44.8 41.6 3.2 -11.7993
926 2 46.4 40 4.8 -9.83523
959 1 48 41.6 3.2 -11.7875
928 2 49.6 40 4.8 -9.84958
930 2 1.6 43.2 4.8 -9.87285
961 4 0 44.8 3.2 -13.4273
932 1 4.8 43.2 4.8 -11.8125
963 2 3.2 44.8 3.2 -9.87033
934 1 8 43.2 4.8 -11.8131
965 2 6.4 44.8 3.2 -9.8168
936 3 11.2 43.2 4.8 -11.3595
967 2 9.6 44.8 3.2 -9.95891
938 3 14.4 43.2 4.8 -11.4191
969 2 12.8 44.8 3.2 -9.9523
940 2 17.6 43.2 4.8 -9.90532
971 3 16 44.8 3.2 -11.3046
942 2 20.8 43.2 4.8 -9.8544
973 2 19.2 44.8 3.2 -9.77722
944 2 24 43.2 4.8 -9.9412
975 2 22.4 44.8 3.2 -9.90368
977 2 25.6 44.8 3.2 -9.91604
946 4 27.2 43.2 4.8 -13.3784
979 2 28.8 44.8 3.2 -9.91658
948 1 30.4 43.2 4.8 -11.8584
981 3 32 44.8 3.2 -11.4032
950 1 33.6 43.2 4.8 -11.8809
983 3 35.2 44.8 3.2 -11.4947
952 2 36.8 43.2 4.8 -9.88814
985 2 38.4 44.8 3.2 -9.91537
954 3 40 43.2 4.8 -11.3778
987 4 41.6 44.8 3.2 -13.3743
956 2 43.2 43.2 4.8 -9.9069
989 4 44.8 44.8 3.2 -13.3173
958 2 46.4 43.2 4.8 -9.84493
991 4 48 44.8 3.2 -13.2613
960 2 49.6 43.2 4.8 -9.84009
962 2 1.6 46.4 4.8 -9.91467
993 2 0 48 3.2 -9.84468
964 4 4.8 46.4 4.8 -13.3167
995 2 3.2 48 3.2 -9.90224
966 1 8 46.4 4.8 -11.8079
997 2 6.4 48 3.2 -9.91717
968 4 11.2 46.4 4.8 -13.4493
999 3 9.6 48 3.2 -11.4271
970 2 14.4 46.4 4.8 -9.90321
1001 2 12.8 48 3.2 -9.90433
972 3 17.6 46.4 4.8 -11.3144
1003 2 16 48 3.2 -9.85784
974 2 20.8 46.4 4.8 -9.81619
1005 4 19.2 48 3.2 -13.3718
976 2 24 46.4 4.8 -9.83983
1007 2 22.4 48 3.2 -9.84205
1009 4 25.6 48 3.2 -13.4894
978 2 27.2 46.4 4.8 -9.89573
1011 3 28.8 48 3.2 -11.3537
980 4 30.4 46.4 4.8 -13.3779
1013 2 32 48 3.2 -9.93343
982 1 33.6 46.4 4.8 -11.8896
1015 2 35.2 48 3.2 -9.92364
984 2 36.8 46.4 4.8 -9.87128
1017 2 38.4 48 3.2 -9.85667
986 2 40 46.4 4.8 -9.84316
1019 2 41.6 48 3.2 -9.87931
988 2 43.2 46.4 4.8 -9.9069
1021 2 44.8 48 3.2 -9.81769
990 3 46.4 46.4 4.8 -11.3021
1023 1 48 48 3.2 -11.7208
992 2 49.6 46.4 4.8 -9.9017
994 2 1.6 49.6 4.8 -9.83977
996 4 4.8 49.6 4.8 -13.3658
998 2 8 49.6 4.8 -9.86992
1000 3 11.2 49.6 4.8 -11.3851
1002 3 14.4 49.6 4.8 -11.303
1004 3 17.6 49.6 4.8 -11.3059
1006 3 20.8 49.6 4.8 -11.1949
1008 2 24 49.6 4.8 -9.86691
1010 2 27.2 49.6 4.8 -9.91832
1012 2 30.4 49.6 4.8 -9.91697
1014 2 33.6 49.6 4.8 -9.8804
1016 3 36.8 49.6 4.8 -11.343
1018 2 40 49.6 4.8 -9.90774
1020 3 43.2 49.6 4.8 -11.3595
1022 4 46.4 49.6 4.8 -13.3461
1024 2 49.6 49.6 4.8 -9.81
1025 4 0 0 6.4 -13.3657
1026 3 1.6 1.6 8 -11.3291
1027 4 3.2 0 6.4 -13.3449
1028 4 4.8 1.6 8 -13.4097
1029 2 6.4 0 6.4 -9.91542
1030 2 8 1.6 8 -9.86991
1031 3 9.6 0 6.4 -11.3404
1032 2 11.2 1.6 8 -9.91642
1033 1 12.8 0 6.4 -11.8323
1034 3 14.4 1.6 8 -11.33
1035 1 16 0 6.4 -11.8673
1036 3 17.6 1.6 8 -11.3334
1037 1 19.2 0 6.4 -11.8418
1038 3 20.8 1.6 8 -11.2323
1039 1 22.4 0 6.4 -11.7512
1040 3 24 1.6 8 -11.2756
1041 1 25.6 0 6.4 -11.8233
1042 3 27.2 1.6 8 -11.4384
1043 2 28.8 0 6.4 -9.90147
1044 3 30.4 1.6 8 -11.3627
1045 2 32 0 6.4 -9.88479
1046 3 33.6 1.6 8 -11.2852
1047 4 35.2 0 6.4 -13.3684
1048 2 36.8 1.6 8 -9.75623
1049 1 38.4 0 6.4 -11.8136
1050 3 40 1.6 8 -11.2369
1051 1 41.6 0 6.4 -11.8864
1052 3 43.2 1.6 8 -11.3219
1053 2 44.8 0 6.4 -9.86397
1054 2 46.4 1.6 8 -9.88139
1055 2 48 0 6.4 -9.87531
1056 2 49.6 1.6 8 -9.95402
1057 2 0 3.2 6.4 -9.89288
1058 2 1.6 4.8 8 -9.89247
1059 2 3.2 3.2 6.4 -9.8464
1060 2 4.8 4.8 8 -9.81917
1061 2 6.4 3.2 6.4 -9.86292
1062 2 8 4.8 8 -9.81096
1063 4 9.6 3.2 6.4 -13.3717
1064 2 11.2 4.8 8 -9.88744
1065 2 12.8 3.2 6.4 -9.87515
1066 2 14.4 4.8 8 -9.93379
1067 1 16 3.2 6.4 -11.8481
1068 2 17.6 4.8 8 -9.87929
1069 2 19.2 3.2 6.4 -9.82728
1070 2 20.8 4.8 8 -9.90866
1071 1 22.4 3.2 6.4 -11.8353
1072 3 24 4.8 8 -11.2389
1073 1 25.6 3.2 6.4 -11.8547
1074 3 27.2 4.8 8 -11.235
1075 1 28.8 3.2 6.4 -11.8656
1076 3 30.4 4.8 8 -11.3314
1077 1 32 3.2 6.4 -11.8263
1078 2 33.6 4.8 8 -9.77508
1079 1 35.2 3.2 6.4 -11.7371
1080 3 36.8 4.8 8 -11.1167
1081 1 38.4 3.2 6.4 -11.799
1082 3 40 4.8 8 -11.3289
1083 4 41.6 3.2 6.4 -13.379
1084 2 43.2 4.8 8 -9.88455
1085 1 44.8 3.2 6.4 -11.8341
1086 2 46.4 4.8 8 -9.84821
1087 2 48 3.2 6.4 -9.81658
1088 3 49.6 4.8 8 -11.3229
1089 2 0 6.4 6.4 -9.78563
1090 3 1.6 8 8 -11.1936
1091 1 3.2 6.4 6.4 -11.7802
1092 2 4.8 8 8 -9.8054
1093 1 6.4 6.4 6.4 -11.7315
1094 3 8 8 8 -11.2649
1095 1 9.6 6.4 6.4 -11.7148
1096 2 11.2 8 8 -9.87817
1097 4 12.8 6.4 6.4 -13.4639
1098 3 14.4 8 8 -11.3742
1099 2 16 6.4 6.4 -9.90202
1100 1 17.6 8 8 -11.8194
1101 2 19.2 6.4 6.4 -9.96798
1102 4 20.8 8 8 -13.3566
1103 2 22.4 6.4 6.4 -9.80004