ITEM: TIMESTEP
0
ITEM: NUMBER OF ATOMS
8192
ITEM: BOX BOUNDS pp pp pp
0.0000000000000000e+00 5.1200000000000003e+01
0.0000000000000000e+00 5.1200000000000003e+01
0.0000000000000000e+00 5.1200000000000003e+01
ITEM: ATOMS id type x y z c_eng
1 1 0 0 0 -11.8557
2 3 1.6 1.6 1.6 -11.2378
3 1 3.2 0 0 -11.8416
4 2 4.8 1.6 1.6 -9.88044
5 2 6.4 0 0 -9.89453
6 2 8 1.6 1.6 -9.89723
7 2 9.6 0 0 -9.91222
8 2 11.2 1.6 1.6 -9.92523
9 2 12.8 0 0 -9.92122
10 2 14.4 1.6 1.6 -9.90252
11 2 16 0 0 -9.87639
12 2 17.6 1.6 1.6 -9.85
13 4 19.2 0 0 -13.3339
14 3 20.8 1.6 1.6 -11.2574
15 2 22.4 0 0 -9.84822
16 2 24 1.6 1.6 -9.84337
17 2 25.6 0 0 -9.86738
18 2 27.2 1.6 1.6 -9.95853
19 2 28.8 0 0 -9.92143
20 3 30.4 1.6 1.6 -11.3808
21 1 32 0 0 -11.831
22 3 33.6 1.6 1.6 -11.2357
23 1 35.2 0 0 -11.8573
24 3 36.8 1.6 1.6 -11.2767
25 1 38.4 0 0 -11.8674
26 3 40 1.6 1.6 -11.2039
27 1 41.6 0 0 -11.8415
28 3 43.2 1.6 1.6 -11.2036
29 1 44.8 0 0 -11.8558
30 3 46.4 1.6 1.6 -11.3089
31 4 48 0 0 -13.3645
32 3 49.6 1.6 1.6 -11.3387
33 1 0 3.2 0 -11.8554
34 3 1.6 4.8 1.6 -11.3037
35 1 3.2 3.2 0 -11.8185
36 2 4.8 4.8 1.6 -9.88303
37 3 6.4 3.2 0 -11.3484
38 4 8 4.8 1.6 -13.3913
39 2 9.6 3.2 0 -9.86098
40 4 11.2 4.8 1.6 -13.3343
41 2 12.8 3.2 0 -9.8605
42 2 14.4 4.8 1.6 -9.90623
43 2 16 3.2 0 -9.86033
44 2 17.6 4.8 1.6 -9.90872
45 1 19.2 3.2 0 -11.755
46 3 20.8 4.8 1.6 -11.1994
47 1 22.4 3.2 0 -11.7766
48 2 24 4.8 1.6 -9.78701
49 4 25.6 3.2 0 -13.3489
50 2 27.2 4.8 1.6 -9.792
51 2 28.8 3.2 0 -9.87379
52 2 30.4 4.8 1.6 -9.89043
53 1 32 3.2 0 -11.8089
54 2 33.6 4.8 1.6 -9.86473
55 4 35.2 3.2 0 -13.3022
56 3 36.8 4.8 1.6 -11.285
57 1 38.4 3.2 0 -11.7973
58 2 40 4.8 1.6 -9.78029
59 1 41.6 3.2 0 -11.7703
60 2 43.2 4.8 1.6 -9.80473
61 1 44.8 3.2 0 -11.8119
62 3 46.4 4.8 1.6 -11.2728
63 1 48 3.2 0 -11.8697
64 3 49.6 4.8 1.6 -11.307
65 1 0 6.4 0 -11.8132
66 2 1.6 8 1.6 -9.81201
67 4 3.2 6.4 0 -13.3806
68 4 4.8 8 1.6 -13.3944
69 2 6.4 6.4 0 -9.91262
70 2 8 8 1.6 -9.90781
71 2 9.6 6.4 0 -9.85693
72 2 11.2 8 1.6 -9.91445
73 2 12.8 6.4 0 -9.86058
74 2 14.4 8 1.6 -9.90353
75 2 16 6.4 0 -9.90122
76 2 17.6 8 1.6 -9.89022
77 2 19.2 6.4 0 -9.8506
78 2 20.8 8 1.6 -9.87021
79 1 22.4 6.4 0 -11.7673
80 2 24 8 1.6 -9.77758
81 1 25.6 6.4 0 -11.702
82 4 27.2 8 1.6 -13.1707
83 2 28.8 6.4 0 -9.86484
84 2 30.4 8 1.6 -9.86318
85 2 32 6.4 0 -9.8769
86 1 33.6 8 1.6 -11.7907
87 2 35.2 6.4 0 -9.89184
88 2 36.8 8 1.6 -9.8619
89 1 38.4 6.4 0 -11.7513
90 2 40 8 1.6 -9.86354
91 4 41.6 6.4 0 -13.2885
92 3 43.2 8 1.6 -11.3761
93 1 44.8 6.4 0 -11.8573
94 3 46.4 8 1.6 -11.3343
95 1 48 6.4 0 -11.8412
96 3 49.6 8 1.6 -11.2013
97 1 0 9.6 0 -11.7615
98 2 1.6 11.2 1.6 -9.83638
99 2 3.2 9.6 0 -9.85956
100 4 4.8 11.2 1.6 -13.3918
101 2 6.4 9.6 0 -9.93084
102 4 8 11.2 1.6 -13.442
103 2 9.6 9.6 0 -9.93801
104 2 11.2 11.2 1.6 -9.89783
105 2 12.8 9.6 0 -9.89213
106 2 14.4 11.2 1.6 -9.8693
107 4 16 9.6 0 -13.3961
108 2 17.6 11.2 1.6 -9.86369
109 2 19.2 9.6 0 -9.90631
110 2 20.8 11.2 1.6 -9.90158
111 2 22.4 9.6 0 -9.90628
112 2 24 11.2 1.6 -9.93684
113 4 25.6 9.6 0 -13.3549
114 2 27.2 11.2 1.6 -9.91633
115 4 28.8 9.6 0 -13.4018
116 2 30.4 11.2 1.6 -9.92029
117 2 32 9.6 0 -9.83843
118 4 33.6 11.2 1.6 -13.3614
119 2 35.2 9.6 0 -9.86749
120 2 36.8 11.2 1.6 -9.85084
121 1 38.4 9.6 0 -11.7374
122 2 40 11.2 1.6 -9.87217
123 2 41.6 9.6 0 -9.87564
124 4 43.2 11.2 1.6 -13.4026
125 1 44.8 9.6 0 -11.7924
126 2 46.4 11.2 1.6 -9.87693
127 1 48 9.6 0 -11.8036
128 2 49.6 11.2 1.6 -9.88004
129 2 0 12.8 0 -9.87524
130 1 1.6 14.4 1.6 -11.7246
131 2 3.2 12.8 0 -9.89319
132 2 4.8 14.4 1.6 -9.82446
133 3 6.4 12.8 0 -11.3923
134 4 8 14.4 1.6 -13.4155
135 3 9.6 12.8 0 -11.4302
136 2 11.2 14.4 1.6 -9.91834
137 4 12.8 12.8 0 -13.3883
138 2 14.4 14.4 1.6 -9.88145
139 2 16 12.8 0 -9.89092
140 2 17.6 14.4 1.6 -9.85693
141 2 19.2 12.8 0 -9.8397
142 2 20.8 14.4 1.6 -9.81361
143 2 22.4 12.8 0 -9.90631
144 2 24 14.4 1.6 -9.92293
145 2 25.6 12.8 0 -9.93957
146 2 27.2 14.4 1.6 -9.94771
147 3 28.8 12.8 0 -11.3981
148 4 30.4 14.4 1.6 -13.3598
149 2 32 12.8 0 -9.86787
150 2 33.6 14.4 1.6 -9.84845
151 3 35.2 12.8 0 -11.3164
152 1 36.8 14.4 1.6 -11.8299
153 2 38.4 12.8 0 -9.88968
154 4 40 14.4 1.6 -13.3243
155 2 41.6 12.8 0 -9.95466
156 1 43.2 14.4 1.6 -11.8333
157 2 44.8 12.8 0 -9.90124
158 4 46.4 14.4 1.6 -13.3916
159 2 48 12.8 0 -9.91457
160 4 49.6 14.4 1.6 -13.3655
161 2 0 16 0 -9.84771
162 2 1.6 17.6 1.6 -9.8589
163 2 3.2 16 0 -9.79826
164 1 4.8 17.6 1.6 -11.7752
165 2 6.4 16 0 -9.91567
166 2 8 17.6 1.6 -9.8846
167 2 9.6 16 0 -9.97442
168 2 11.2 17.6 1.6 -9.95699
169 2 12.8 16 0 -9.92713
170 2 14.4 17.6 1.6 -9.89203
171 2 16 16 0 -9.91568
172 2 17.6 17.6 1.6 -9.90187
173 1 19.2 16 0 -11.7391
174 2 20.8 17.6 1.6 -9.76641
175 1 22.4 16 0 -11.7236
176 2 24 17.6 1.6 -9.81017
177 4 25.6 16 0 -13.3633
178 2 27.2 17.6 1.6 -9.88479
179 2 28.8 16 0 -9.88155
180 2 30.4 17.6 1.6 -9.86656
181 2 32 16 0 -9.86971
182 4 33.6 17.6 1.6 -13.4207
183 3 35.2 16 0 -11.3314
184 4 36.8 17.6 1.6 -13.3995
185 3 38.4 16 0 -11.3027
186 1 40 17.6 1.6 -11.8592
187 3 41.6 16 0 -11.3373
188 1 43.2 17.6 1.6 -11.8114
189 3 44.8 16 0 -11.2595
190 1 46.4 17.6 1.6 -11.8336
191 2 48 16 0 -9.8945
192 2 49.6 17.6 1.6 -9.7929
193 2 0 19.2 0 -9.89026
194 2 1.6 20.8 1.6 -9.90631
195 2 3.2 19.2 0 -9.86046
196 2 4.8 20.8 1.6 -9.84414
197 2 6.4 19.2 0 -9.79144
198 4 8 20.8 1.6 -13.3673
199 2 9.6 19.2 0 -9.90357
200 2 11.2 20.8 1.6 -9.90766
201 2 12.8 19.2 0 -9.90453
202 1 14.4 20.8 1.6 -11.7744
203 2 16 19.2 0 -9.90821
204 2 17.6 20.8 1.6 -9.83933
205 2 19.2 19.2 0 -9.85361
206 2 20.8 20.8 1.6 -9.85718
207 1 22.4 19.2 0 -11.7148
208 2 24 20.8 1.6 -9.84031
209 4 25.6 19.2 0 -13.2842
210 2 27.2 20.8 1.6 -9.81286
211 1 28.8 19.2 0 -11.7355
212 1 30.4 20.8 1.6 -11.7392
213 2 32 19.2 0 -9.81974
214 1 33.6 20.8 1.6 -11.8274
215 3 35.2 19.2 0 -11.2717
216 1 36.8 20.8 1.6 -11.8824
217 3 38.4 19.2 0 -11.2756
218 1 40 20.8 1.6 -11.8411
219 3 41.6 19.2 0 -11.2414
220 1 43.2 20.8 1.6 -11.8415
221 3 44.8 19.2 0 -11.3916
222 2 46.4 20.8 1.6 -9.85882
223 3 48 19.2 0 -11.3182
224 1 49.6 20.8 1.6 -11.8032
225 2 0 22.4 0 -9.81993
226 4 1.6 24 1.6 -13.391
227 2 3.2 22.4 0 -9.91546
228 2 4.8 24 1.6 -9.90764
229 2 6.4 22.4 0 -9.83687
230 2 8 24 1.6 -9.86898
231 2 9.6 22.4 0 -9.86143
232 2 11.2 24 1.6 -9.92332
233 2 12.8 22.4 0 -9.88457
234 2 14.4 24 1.6 -9.85834
235 2 16 22.4 0 -9.84043
236 2 17.6 24 1.6 -9.92308
237 2 19.2 22.4 0 -9.87702
238 2 20.8 24 1.6 -9.90452
239 2 22.4 22.4 0 -9.8379
240 2 24 24 1.6 -9.88665
241 2 25.6 22.4 0 -9.89874
242 2 27.2 24 1.6 -9.87033
243 2 28.8 22.4 0 -9.88097
244 1 30.4 24 1.6 -11.8061
245 3 32 22.4 0 -11.2662
246 1 33.6 24 1.6 -11.8415
247 3 35.2 22.4 0 -11.3379
248 2 36.8 24 1.6 -9.84336
249 3 38.4 22.4 0 -11.3366
250 1 40 24 1.6 -11.844
251 3 41.6 22.4 0 -11.2761
252 1 43.2 24 1.6 -11.7823
253 3 44.8 22.4 0 -11.2874
254 1 46.4 24 1.6 -11.764
255 2 48 22.4 0 -9.89348
256 2 49.6 24 1.6 -9.77461
257 2 0 25.6 0 -9.88926
259 2 3.2 25.6 0 -9.87164
261 4 6.4 25.6 0 -13.3127
263 1 9.6 25.6 0 -11.7716
265 1 12.8 25.6 0 -11.7426
267 1 16 25.6 0 -11.7568
269 2 19.2 25.6 0 -9.90796
271 4 22.4 25.6 0 -13.4226
273 2 25.6 25.6 0 -9.93901
275 2 28.8 25.6 0 -9.86253
277 3 32 25.6 0 -11.2392
279 3 35.2 25.6 0 -11.2645
281 2 38.4 25.6 0 -9.83791
283 3 41.6 25.6 0 -11.2721
285 2 44.8 25.6 0 -9.81397
287 3 48 25.6 0 -11.2549
258 2 1.6 27.2 1.6 -9.88846
289 2 0 28.8 0 -9.82928
260 3 4.8 27.2 1.6 -11.2926
291 1 3.2 28.8 0 -11.8109
262 3 8 27.2 1.6 -11.3314
293 4 6.4 28.8 0 -13.3485
264 3 11.2 27.2 1.6 -11.3693
295 2 9.6 28.8 0 -9.84862
266 2 14.4 27.2 1.6 -9.8904
297 2 12.8 28.8 0 -9.87763
268 2 17.6 27.2 1.6 -9.92291
299 2 16 28.8 0 -9.92839
270 2 20.8 27.2 1.6 -9.91891
301 2 19.2 28.8 0 -9.93948
272 4 24 27.2 1.6 -13.4004
303 2 22.4 28.8 0 -9.94634
305 3 25.6 28.8 0 -11.3757
274 1 27.2 27.2 1.6 -11.7752
307 3 28.8 28.8 0 -11.2389
276 1 30.4 27.2 1.6 -11.7801
309 3 32 28.8 0 -11.2423
278 1 33.6 27.2 1.6 -11.8278
311 3 35.2 28.8 0 -11.3081
280 4 36.8 27.2 1.6 -13.3568
313 3 38.4 28.8 0 -11.1995
282 1 40 27.2 1.6 -11.7255
315 3 41.6 28.8 0 -11.1934
284 1 43.2 27.2 1.6 -11.7944
317 2 44.8 28.8 0 -9.89639
286 2 46.4 27.2 1.6 -9.80017
319 2 48 28.8 0 -9.90871
288 2 49.6 27.2 1.6 -9.88816
290 3 1.6 30.4 1.6 -11.2355
321 4 0 32 0 -13.3678
292 3 4.8 30.4 1.6 -11.2405
323 1 3.2 32 0 -11.8411
294 3 8 30.4 1.6 -11.3321
325 1 6.4 32 0 -11.8181
296 2 11.2 30.4 1.6 -9.86091
327 2 9.6 32 0 -9.81454
298 2 14.4 30.4 1.6 -9.88081
329 1 12.8 32 0 -11.7577
300 2 17.6 30.4 1.6 -9.96953
331 2 16 32 0 -9.92837
302 2 20.8 30.4 1.6 -9.91567
333 2 19.2 32 0 -9.94096
304 2 24 30.4 1.6 -9.87196
335 2 22.4 32 0 -9.91536
337 3 25.6 32 0 -11.3323
306 1 27.2 30.4 1.6 -11.8137
339 3 28.8 32 0 -11.242
308 1 30.4 30.4 1.6 -11.8417
341 3 32 32 0 -11.2414
310 1 33.6 30.4 1.6 -11.8552
343 3 35.2 32 0 -11.3076
312 4 36.8 30.4 1.6 -13.3774
345 3 38.4 32 0 -11.328
314 1 40 30.4 1.6 -11.7467
347 2 41.6 32 0 -9.88014
316 1 43.2 30.4 1.6 -11.7362
349 2 44.8 32 0 -9.91501
318 2 46.4 30.4 1.6 -9.94928
351 2 48 32 0 -9.90592
320 2 49.6 30.4 1.6 -9.86629
322 3 1.6 33.6 1.6 -11.3422
353 1 0 35.2 0 -11.8702
324 3 4.8 33.6 1.6 -11.2759
355 4 3.2 35.2 0 -13.3622
326 3 8 33.6 1.6 -11.2387
357 1 6.4 35.2 0 -11.8252
328 2 11.2 33.6 1.6 -9.79511
359 1 9.6 35.2 0 -11.7945
330 2 14.4 33.6 1.6 -9.88093
361 4 12.8 35.2 0 -13.3619
332 2 17.6 33.6 1.6 -9.90625
363 2 16 35.2 0 -9.93685
334 1 20.8 33.6 1.6 -11.8092
365 2 19.2 35.2 0 -9.9154
336 4 24 33.6 1.6 -13.4199
367 3 22.4 35.2 0 -11.3237
369 3 25.6 35.2 0 -11.2671
338 1 27.2 33.6 1.6 -11.8276
371 3 28.8 35.2 0 -11.2048
340 1 30.4 33.6 1.6 -11.8415
373 3 32 35.2 0 -11.2048
342 1 33.6 33.6 1.6 -11.8572
375 3 35.2 35.2 0 -11.2
344 4 36.8 33.6 1.6 -13.4037
377 2 38.4 35.2 0 -9.87282
346 2 40 33.6 1.6 -9.89493
379 4 41.6 35.2 0 -13.3778
348 2 43.2 33.6 1.6 -9.89061
381 1 44.8 35.2 0 -11.8717
350 3 46.4 33.6 1.6 -11.4007
383 1 48 35.2 0 -11.8686
352 3 49.6 33.6 1.6 -11.3548
354 3 1.6 36.8 1.6 -11.3094
385 1 0 38.4 0 -11.8694
356 3 4.8 36.8 1.6 -11.3053
387 1 3.2 38.4 0 -11.8394
358 3 8 36.8 1.6 -11.3064
389 1 6.4 38.4 0 -11.8552
360 2 11.2 36.8 1.6 -9.87862
391 4 9.6 38.4 0 -13.3984
362 2 14.4 36.8 1.6 -9.91875
393 3 12.8 38.4 0 -11.3805
364 2 17.6 36.8 1.6 -9.92034
395 2 16 38.4 0 -9.93333
366 2 20.8 36.8 1.6 -9.8839
397 2 19.2 38.4 0 -9.92286
368 4 24 36.8 1.6 -13.339
399 2 22.4 38.4 0 -9.86532
401 2 25.6 38.4 0 -9.79074
370 1 27.2 36.8 1.6 -11.7753
403 2 28.8 38.4 0 -9.83086
372 1 30.4 36.8 1.6 -11.7587
405 2 32 38.4 0 -9.8083
374 1 33.6 36.8 1.6 -11.7453
407 2 35.2 38.4 0 -9.78843
376 4 36.8 36.8 1.6 -13.3216
409 1 38.4 38.4 0 -11.7646
378 3 40 36.8 1.6 -11.3522
411 1 41.6 38.4 0 -11.869
380 3 43.2 36.8 1.6 -11.308
413 1 44.8 38.4 0 -11.8695
382 3 46.4 36.8 1.6 -11.3397
415 4 48 38.4 0 -13.3634
384 3 49.6 36.8 1.6 -11.3052
386 3 1.6 40 1.6 -11.1639
417 1 0 41.6 0 -11.8555
388 2 4.8 40 1.6 -9.77566
419 1 3.2 41.6 0 -11.8122
390 3 8 40 1.6 -11.3307
421 1 6.4 41.6 0 -11.8113
392 3 11.2 40 1.6 -11.3806
423 2 9.6 41.6 0 -9.88042
394 1 14.4 40 1.6 -11.7972
425 3 12.8 41.6 0 -11.3961
396 2 17.6 40 1.6 -9.93942
427 2 16 41.6 0 -9.85937
398 2 20.8 40 1.6 -9.92842
429 2 19.2 41.6 0 -9.91429
400 4 24 40 1.6 -13.3394
431 2 22.4 41.6 0 -9.92715
433 4 25.6 41.6 0 -13.3637
402 2 27.2 40 1.6 -9.84451
435 2 28.8 41.6 0 -9.8992
404 2 30.4 40 1.6 -9.86511
437 2 32 41.6 0 -9.88102
406 4 33.6 40 1.6 -13.3353
439 2 35.2 41.6 0 -9.87051
408 2 36.8 40 1.6 -9.86021
441 1 38.4 41.6 0 -11.7901
410 3 40 40 1.6 -11.3262
443 1 41.6 41.6 0 -11.8278
412 3 43.2 40 1.6 -11.3073
445 1 44.8 41.6 0 -11.8554
414 3 46.4 40 1.6 -11.2753
447 1 48 41.6 0 -11.8696
416 3 49.6 40 1.6 -11.2758
418 3 1.6 43.2 1.6 -11.2761
449 4 0 44.8 0 -13.3656
420 3 4.8 43.2 1.6 -11.2007
451 1 3.2 44.8 0 -11.8555
422 3 8 43.2 1.6 -11.3546
453 1 6.4 44.8 0 -11.8411
424 2 11.2 43.2 1.6 -9.92026
455 2 9.6 44.8 0 -9.93111
426 1 14.4 43.2 1.6 -11.7615
457 3 12.8 44.8 0 -11.2497
428 2 17.6 43.2 1.6 -9.87197
459 2 16 44.8 0 -9.8376
430 4 20.8 43.2 1.6 -13.4219
461 4 19.2 44.8 0 -13.3663
432 2 24 43.2 1.6 -9.90058
463 2 22.4 44.8 0 -9.92391
465 2 25.6 44.8 0 -9.8972
434 2 27.2 43.2 1.6 -9.87815
467 2 28.8 44.8 0 -9.93262
436 1 30.4 43.2 1.6 -11.7733
469 2 32 44.8 0 -9.84652
438 1 33.6 43.2 1.6 -11.6724
471 4 35.2 44.8 0 -13.2961
440 2 36.8 43.2 1.6 -9.84922
473 1 38.4 44.8 0 -11.8517
442 2 40 43.2 1.6 -9.86086
475 1 41.6 44.8 0 -11.8413
444 3 43.2 43.2 1.6 -11.305
477 4 44.8 44.8 0 -13.365
446 3 46.4 43.2 1.6 -11.2753
479 1 48 44.8 0 -11.8701
448 3 49.6 43.2 1.6 -11.2753
450 3 1.6 46.4 1.6 -11.3079
481 1 0 48 0 -11.8555
452 3 4.8 46.4 1.6 -11.3419
483 1 3.2 48 0 -11.8695
454 3 8 46.4 1.6 -11.3478
485 4 6.4 48 0 -13.3978
456 1 11.2 46.4 1.6 -11.7566
487 2 9.6 48 0 -9.8877
458 1 14.4 46.4 1.6 -11.7195
489 2 12.8 48 0 -9.84183
460 2 17.6 46.4 1.6 -9.88108
491 2 16 48 0 -9.85905
462 2 20.8 46.4 1.6 -9.90105
493 1 19.2 48 0 -11.7756
464 2 24 46.4 1.6 -9.93666
495 2 22.4 48 0 -9.89463
497 2 25.6 48 0 -9.89825
466 2 27.2 46.4 1.6 -9.94482
499 4 28.8 48 0 -13.3918
468 2 30.4 46.4 1.6 -9.92396
501 4 32 48 0 -13.4206
470 2 33.6 46.4 1.6 -9.8405
503 4 35.2 48 0 -13.3918
472 3 36.8 46.4 1.6 -11.3763
505 2 38.4 48 0 -9.83298
474 3 40 46.4 1.6 -11.4144
507 1 41.6 48 0 -11.8677
476 3 43.2 46.4 1.6 -11.3089
509 1 44.8 48 0 -11.8556
478 3 46.4 46.4 1.6 -11.2753
511 1 48 48 0 -11.8696
480 3 49.6 46.4 1.6 -11.2753
482 3 1.6 49.6 1.6 -11.2756
484 3 4.8 49.6 1.6 -11.3344
486 3 8 49.6 1.6 -11.3787
488 3 11.2 49.6 1.6 -11.294
490 2 14.4 49.6 1.6 -9.90391
492 2 17.6 49.6 1.6 -9.8938
494 2 20.8 49.6 1.6 -9.88947
496 1 24 49.6 1.6 -11.7647
498 2 27.2 49.6 1.6 -9.90143
500 2 30.4 49.6 1.6 -9.94613
502 3 33.6 49.6 1.6 -11.3329
504 3 36.8 49.6 1.6 -11.3931
506 3 40 49.6 1.6 -11.3642
508 3 43.2 49.6 1.6 -11.2414
510 3 46.4 49.6 1.6 -11.2753
512 3 49.6 49.6 1.6 -11.2753
513 1 0 0 3.2 -11.8695
514 3 1.6 1.6 4.8 -11.3091
515 1 3.2 0 3.2 -11.8253
516 3 4.8 1.6 4.8 -11.2023
517 1 6.4 0 3.2 -11.7864
518 2 8 1.6 4.8 -9.78057
519 1 9.6 0 3.2 -11.7563
520 2 11.2 1.6 4.8 -9.85984
521 4 12.8 0 3.2 -13.3609
522 2 14.4 1.6 4.8 -9.86226
523 1 16 0 3.2 -11.7577
524 2 17.6 1.6 4.8 -9.82286
525 2 19.2 0 3.2 -9.85093
526 2 20.8 1.6 4.8 -9.86374
527 4 22.4 0 3.2 -13.3729
528 2 24 1.6 4.8 -9.93414
529 2 25.6 0 3.2 -9.94351
530 3 27.2 1.6 4.8 -11.4024
531 3 28.8 0 3.2 -11.4099
532 3 30.4 1.6 4.8 -11.4394
533 4 32 0 3.2 -13.4926
534 3 33.6 1.6 4.8 -11.393
535 1 35.2 0 3.2 -11.8546
536 3 36.8 1.6 4.8 -11.2357
537 1 38.4 0 3.2 -11.8813
538 3 40 1.6 4.8 -11.3078
539 1 41.6 0 3.2 -11.8414
540 3 43.2 1.6 4.8 -11.2417
541 1 44.8 0 3.2 -11.8415
542 3 46.4 1.6 4.8 -11.2753
543 1 48 0 3.2 -11.8696
544 3 49.6 1.6 4.8 -11.3387
545 4 0 3.2 3.2 -13.3833
546 3 1.6 4.8 4.8 -11.2722
547 1 3.2 3.2 3.2 -11.8319
548 2 4.8 4.8 4.8 -9.80847
549 2 6.4 3.2 3.2 -9.86112
550 2 8 4.8 4.8 -9.81058
551 2 9.6 3.2 3.2 -9.88359
552 4 11.2 4.8 4.8 -13.3347
553 2 12.8 3.2 3.2 -9.92154
554 2 14.4 4.8 4.8 -9.90494
555 2 16 3.2 3.2 -9.84783
556 3 17.6 4.8 4.8 -11.2662
557 1 19.2 3.2 3.2 -11.7905
558 3 20.8 4.8 4.8 -11.2387
559 1 22.4 3.2 3.2 -11.8047
560 3 24 4.8 4.8 -11.3033
561 2 25.6 3.2 3.2 -9.79109
562 2 27.2 4.8 4.8 -9.87485
563 1 28.8 3.2 3.2 -11.8451
564 3 30.4 4.8 4.8 -11.3629
565 1 32 3.2 3.2 -11.8392
566 3 33.6 4.8 4.8 -11.2967
567 1 35.2 3.2 3.2 -11.8317
568 2 36.8 4.8 4.8 -9.88563
569 1 38.4 3.2 3.2 -11.8322
570 3 40 4.8 4.8 -11.331
571 1 41.6 3.2 3.2 -11.7982
572 3 43.2 4.8 4.8 -11.2727
573 1 44.8 3.2 3.2 -11.8418
574 3 46.4 4.8 4.8 -11.3089
575 4 48 3.2 3.2 -13.3839
576 3 49.6 4.8 4.8 -11.307
577 1 0 6.4 3.2 -11.8265
578 2 1.6 8 4.8 -9.86918
579 2 3.2 6.4 3.2 -9.82645
580 2 4.8 8 4.8 -9.88077
581 2 6.4 6.4 3.2 -9.90205
582 2 8 8 4.8 -9.87841
583 2 9.6 6.4 3.2 -9.86147
584 4 11.2 8 4.8 -13.3386
585 2 12.8 6.4 3.2 -9.90357
586 2 14.4 8 4.8 -9.91238
587 2 16 6.4 3.2 -9.88527
588 3 17.6 8 4.8 -11.2619
589 1 19.2 6.4 3.2 -11.8035
590 2 20.8 8 4.8 -9.7841
591 4 22.4 6.4 3.2 -13.2742
592 2 24 8 4.8 -9.88895
593 1 25.6 6.4 3.2 -11.7366
594 2 27.2 8 4.8 -9.842
595 4 28.8 6.4 3.2 -13.2943
596 3 30.4 8 4.8 -11.3765
597 2 32 6.4 3.2 -9.86788
598 2 33.6 8 4.8 -9.91406
599 2 35.2 6.4 3.2 -9.89334
600 3 36.8 8 4.8 -11.3762
601 2 38.4 6.4 3.2 -9.83535
602 3 40 8 4.8 -11.3603
603 4 41.6 6.4 3.2 -13.4196
604 3 43.2 8 4.8 -11.3897
605 4 44.8 6.4 3.2 -13.3967
606 3 46.4 8 4.8 -11.3645
607 1 48 6.4 3.2 -11.8838
608 3 49.6 8 4.8 -11.3026
609 1 0 9.6 3.2 -11.781
610 2 1.6 11.2 4.8 -9.87687
611 2 3.2 9.6 3.2 -9.90022
612 2 4.8 11.2 4.8 -9.92843
613 2 6.4 9.6 3.2 -9.92518
614 2 8 11.2 4.8 -9.88612
615 2 9.6 9.6 3.2 -9.92334
616 2 11.2 11.2 4.8 -9.85682
617 4 12.8 9.6 3.2 -13.339
618 2 14.4 11.2 4.8 -9.89325
619 4 16 9.6 3.2 -13.3661
620 2 17.6 11.2 4.8 -9.82338
621 1 19.2 9.6 3.2 -11.7185
622 2 20.8 11.2 4.8 -9.83574
623 2 22.4 9.6 3.2 -9.89369
624 4 24 11.2 4.8 -13.4473
625 2 25.6 9.6 3.2 -9.82596
626 2 27.2 11.2 4.8 -9.92155
627 1 28.8 9.6 3.2 -11.7905
628 3 30.4 11.2 4.8 -11.3612
629 2 32 9.6 3.2 -9.86219
630 2 33.6 11.2 4.8 -9.94338
631 2 35.2 9.6 3.2 -9.89411
632 2 36.8 11.2 4.8 -9.88286
633 1 38.4 9.6 3.2 -11.7921
634 2 40 11.2 4.8 -9.85542
635 2 41.6 9.6 3.2 -9.90432
636 2 43.2 11.2 4.8 -9.91811
637 2 44.8 9.6 3.2 -9.86771
638 2 46.4 11.2 4.8 -9.94173
639 4 48 9.6 3.2 -13.4059
640 2 49.6 11.2 4.8 -9.90432
641 2 0 12.8 3.2 -9.81259
642 1 1.6 14.4 4.8 -11.749
643 2 3.2 12.8 3.2 -9.86584
644 4 4.8 14.4 4.8 -13.3879
645 2 6.4 12.8 3.2 -9.91503
646 4 8 14.4 4.8 -13.397
647 2 9.6 12.8 3.2 -9.90747
648 2 11.2 14.4 4.8 -9.88828
649 1 12.8 12.8 3.2 -11.7594
650 2 14.4 14.4 4.8 -9.86848
651 2 16 12.8 3.2 -9.81301
652 2 17.6 14.4 4.8 -9.84675
653 1 19.2 12.8 3.2 -11.742
654 2 20.8 14.4 4.8 -9.85903
655 2 22.4 12.8 3.2 -9.91571
656 2 24 14.4 4.8 -9.90623
657 2 25.6 12.8 3.2 -9.95699
658 2 27.2 14.4 4.8 -9.90627
659 2 28.8 12.8 3.2 -9.92187
660 1 30.4 14.4 4.8 -11.8012
661 2 32 12.8 3.2 -9.92648
662 2 33.6 14.4 4.8 -9.8499
663 2 35.2 12.8 3.2 -9.93461
664 1 36.8 14.4 4.8 -11.7543
665 2 38.4 12.8 3.2 -9.81252
666 1 40 14.4 4.8 -11.7904
667 3 41.6 12.8 3.2 -11.3697
668 2 43.2 14.4 4.8 -9.87213
669 2 44.8 12.8 3.2 -9.94827
670 2 46.4 14.4 4.8 -9.90117
671 3 48 12.8 3.2 -11.3873
672 1 49.6 14.4 4.8 -11.7959
673 2 0 16 3.2 -9.83896
674 2 1.6 17.6 4.8 -9.86976
675 2 3.2 16 3.2 -9.84737
676 2 4.8 17.6 4.8 -9.88878
677 2 6.4 16 3.2 -9.91514
678 2 8 17.6 4.8 -9.93406
679 2 9.6 16 3.2 -9.89873
680 2 11.2 17.6 4.8 -9.92841
681 4 12.8 16 3.2 -13.3663
682 4 14.4 17.6 4.8 -13.3679
683 2 16 16 3.2 -9.89534
684 2 17.6 17.6 4.8 -9.87684
685 1 19.2 16 3.2 -11.7385
686 2 20.8 17.6 4.8 -9.91187
687 2 22.4 16 3.2 -9.83325
688 2 24 17.6 4.8 -9.87955
689 2 25.6 16 3.2 -9.9369
690 4 27.2 17.6 4.8 -13.3915
691 2 28.8 16 3.2 -9.90855
692 2 30.4 17.6 4.8 -9.84851
693 2 32 16 3.2 -9.95685
694 4 33.6 17.6 4.8 -13.4606
695 3 35.2 16 3.2 -11.4055
696 2 36.8 17.6 4.8 -9.80971
697 2 38.4 16 3.2 -9.83824
698 4 40 17.6 4.8 -13.3301
699 3 41.6 16 3.2 -11.2713
700 1 43.2 17.6 4.8 -11.8012
701 2 44.8 16 3.2 -9.85936
702 1 46.4 17.6 4.8 -11.8128
703 3 48 16 3.2 -11.291
704 1 49.6 17.6 4.8 -11.8251
705 2 0 19.2 3.2 -9.90803
706 2 1.6 20.8 4.8 -9.90187
707 2 3.2 19.2 3.2 -9.8992
708 2 4.8 20.8 4.8 -9.8877
709 2 6.4 19.2 3.2 -9.90458
710 2 8 20.8 4.8 -9.94476
711 2 9.6 19.2 3.2 -9.94771
712 3 11.2 20.8 4.8 -11.3604
713 2 12.8 19.2 3.2 -9.87667
714 1 14.4 20.8 4.8 -11.701
715 2 16 19.2 3.2 -9.83381
716 1 17.6 20.8 4.8 -11.7393
717 2 19.2 19.2 3.2 -9.85345
718 2 20.8 20.8 4.8 -9.83797
719 1 22.4 19.2 3.2 -11.723
720 2 24 20.8 4.8 -9.81454
721 2 25.6 19.2 3.2 -9.83204
722 1 27.2 20.8 4.8 -11.7578
723 2 28.8 19.2 3.2 -9.81545
724 1 30.4 20.8 4.8 -11.824
725 3 32 19.2 3.2 -11.3262
726 1 33.6 20.8 4.8 -11.8563
727 3 35.2 19.2 3.2 -11.3625
728 1 36.8 20.8 4.8 -11.8119
729 3 38.4 19.2 3.2 -11.3015
730 1 40 20.8 4.8 -11.7722
731 3 41.6 19.2 3.2 -11.2408
732 1 43.2 20.8 4.8 -11.8045
733 3 44.8 19.2 3.2 -11.2636
734 2 46.4 20.8 4.8 -9.8649
735 2 48 19.2 3.2 -9.89655
736 2 49.6 20.8 4.8 -9.83955
737 2 0 22.4 3.2 -9.89142
738 2 1.6 24 4.8 -9.87682
739 2 3.2 22.4 3.2 -9.89345
740 2 4.8 24 4.8 -9.8938
741 4 6.4 22.4 3.2 -13.3668
742 2 8 24 4.8 -9.85811
743 2 9.6 22.4 3.2 -9.93573
744 4 11.2 24 4.8 -13.47
745 2 12.8 22.4 3.2 -9.92834
746 2 14.4 24 4.8 -9.88631
747 2 16 22.4 3.2 -9.83573
748 2 17.6 24 4.8 -9.8536
749 2 19.2 22.4 3.2 -9.89922
750 2 20.8 24 4.8 -9.88481
751 1 22.4 22.4 3.2 -11.7574
752 2 24 24 4.8 -9.89278
753 4 25.6 22.4 3.2 -13.3415
754 2 27.2 24 4.8 -9.83761
755 2 28.8 22.4 3.2 -9.8164
756 4 30.4 24 4.8 -13.375
757 3 32 22.4 3.2 -11.2405
758 1 33.6 24 4.8 -11.8799
759 3 35.2 22.4 3.2 -11.3337
760 2 36.8 24 4.8 -9.85735
761 3 38.4 22.4 3.2 -11.3306
762 4 40 24 4.8 -13.3709
763 3 41.6 22.4 3.2 -11.27
764 2 43.2 24 4.8 -9.83579
765 2 44.8 22.4 3.2 -9.8463
766 1 46.4 24 4.8 -11.7024
767 2 48 22.4 3.2 -9.82084
768 1 49.6 24 4.8 -11.7219
769 2 0 25.6 3.2 -9.86351
771 2 3.2 25.6 3.2 -9.88545
773 1 6.4 25.6 3.2 -11.7975
775 2 9.6 25.6 3.2 -9.87152
777 3 12.8 25.6 3.2 -11.3301
779 4 16 25.6 3.2 -13.3977
781 2 19.2 25.6 3.2 -9.91443
783 2 22.4 25.6 3.2 -9.85496
785 2 25.6 25.6 3.2 -9.88357
787 2 28.8 25.6 3.2 -9.80907
789 3 32 25.6 3.2 -11.2017
791 2 35.2 25.6 3.2 -9.90587
793 2 38.4 25.6 3.2 -9.85988
795 3 41.6 25.6 3.2 -11.2908
797 2 44.8 25.6 3.2 -9.79228
799 2 48 25.6 3.2 -9.80394
770 2 1.6 27.2 4.8 -9.86139
801 1 0 28.8 3.2 -11.7225
772 2 4.8 27.2 4.8 -9.90857
803 1 3.2 28.8 3.2 -11.8178
774 2 8 27.2 4.8 -9.8692
805 1 6.4 28.8 3.2 -11.827
776 2 11.2 27.2 4.8 -9.90294
807 1 9.6 28.8 3.2 -11.8264
778 4 14.4 27.2 4.8 -13.3735
809 4 12.8 28.8 3.2 -13.4048
780 2 17.6 27.2 4.8 -9.8678
811 2 16 28.8 3.2 -9.91308
782 4 20.8 27.2 4.8 -13.4256
813 2 19.2 28.8 3.2 -9.95692
784 2 24 27.2 4.8 -9.86011
815 4 22.4 28.8 3.2 -13.3958
817 2 25.6 28.8 3.2 -9.81178
786 1 27.2 27.2 4.8 -11.7998
819 3 28.8 28.8 3.2 -11.1648
788 1 30.4 27.2 4.8 -11.8412
821 3 32 28.8 3.2 -11.2423
790 1 33.6 27.2 4.8 -11.8444
823 3 35.2 28.8 3.2 -11.2944
792 2 36.8 27.2 4.8 -9.86306
825 4 38.4 28.8 3.2 -13.2504
794 4 40 27.2 4.8 -13.2854
827 2 41.6 28.8 3.2 -9.76018
796 2 43.2 27.2 4.8 -9.83457
829 2 44.8 28.8 3.2 -9.84728
798 1 46.4 27.2 4.8 -11.7585
831 2 48 28.8 3.2 -9.85733
800 4 49.6 27.2 4.8 -13.2255
802 3 1.6 30.4 4.8 -11.2924
833 1 0 32 3.2 -11.8166
804 3 4.8 30.4 4.8 -11.3319
835 1 3.2 32 3.2 -11.8549
806 3 8 30.4 4.8 -11.3395
837 1 6.4 32 3.2 -11.8408
808 3 11.2 30.4 4.8 -11.3186
839 1 9.6 32 3.2 -11.8396
810 2 14.4 30.4 4.8 -9.88372
841 1 12.8 32 3.2 -11.7737
812 2 17.6 30.4 4.8 -9.91744
843 2 16 32 3.2 -9.91565
814 2 20.8 30.4 4.8 -9.9061
845 2 19.2 32 3.2 -9.8808
816 2 24 30.4 4.8 -9.92645
847 2 22.4 32 3.2 -9.88548
849 2 25.6 32 3.2 -9.88317
818 1 27.2 30.4 4.8 -11.787
851 3 28.8 32 3.2 -11.2036
820 1 30.4 30.4 4.8 -11.8414
853 3 32 32 3.2 -11.3081
822 1 33.6 30.4 4.8 -11.8412
855 3 35.2 32 3.2 -11.3838
824 2 36.8 30.4 4.8 -9.84402
857 2 38.4 32 3.2 -9.88535
826 2 40 30.4 4.8 -9.7574
859 2 41.6 32 3.2 -9.83822
828 4 43.2 30.4 4.8 -13.3695
861 2 44.8 32 3.2 -9.90295
830 2 46.4 30.4 4.8 -9.86326
863 2 48 32 3.2 -9.89971
832 4 49.6 30.4 4.8 -13.2784
834 3 1.6 33.6 4.8 -11.4144
865 4 0 35.2 3.2 -13.3792
836 3 4.8 33.6 4.8 -11.3049
867 1 3.2 35.2 3.2 -11.8959
838 3 8 33.6 4.8 -11.2745
869 1 6.4 35.2 3.2 -11.8676
840 3 11.2 33.6 4.8 -11.3478
871 1 9.6 35.2 3.2 -11.7864
842 2 14.4 33.6 4.8 -9.92161
873 2 12.8 35.2 3.2 -9.86121
844 4 17.6 33.6 4.8 -13.2785
875 2 16 35.2 3.2 -9.92703
846 1 20.8 33.6 4.8 -11.7506
877 2 19.2 35.2 3.2 -9.86869
848 2 24 33.6 4.8 -9.8587
879 3 22.4 35.2 3.2 -11.3497
881 3 25.6 35.2 3.2 -11.3008
850 1 27.2 33.6 4.8 -11.8417
883 3 28.8 35.2 3.2 -11.2048
852 1 30.4 33.6 4.8 -11.8679
885 3 32 35.2 3.2 -11.2683
854 2 33.6 33.6 4.8 -9.84343
887 2 35.2 35.2 3.2 -9.91014
856 2 36.8 33.6 4.8 -9.93263
889 2 38.4 35.2 3.2 -9.91546
858 2 40 33.6 4.8 -9.89386
891 1 41.6 35.2 3.2 -11.8244
860 2 43.2 33.6 4.8 -9.88518
893 4 44.8 35.2 3.2 -13.3845
862 4 46.4 33.6 4.8 -13.4588
895 4 48 35.2 3.2 -13.4096
864 2 49.6 33.6 4.8 -9.86299
866 3 1.6 36.8 4.8 -11.3767
897 1 0 38.4 3.2 -11.8317
868 3 4.8 36.8 4.8 -11.4142
899 1 3.2 38.4 3.2 -11.8138
870 3 8 36.8 4.8 -11.2937
901 2 6.4 38.4 3.2 -9.79552
872 2 11.2 36.8 4.8 -9.86284
903 1 9.6 38.4 3.2 -11.8154
874 4 14.4 36.8 4.8 -13.367
905 2 12.8 38.4 3.2 -9.90456
876 1 17.6 36.8 4.8 -11.8015
907 3 16 38.4 3.2 -11.3068
878 2 20.8 36.8 4.8 -9.85382
909 2 19.2 38.4 3.2 -9.9625
880 1 24 36.8 4.8 -11.8185
911 2 22.4 38.4 3.2 -9.90619
913 2 25.6 38.4 3.2 -9.7589
882 1 27.2 36.8 4.8 -11.7165
915 2 28.8 38.4 3.2 -9.78305
884 1 30.4 36.8 4.8 -11.7748
917 2 32 38.4 3.2 -9.83814
886 4 33.6 36.8 4.8 -13.3713
919 2 35.2 38.4 3.2 -9.86784
888 2 36.8 36.8 4.8 -9.86168
921 2 38.4 38.4 3.2 -9.90392
890 2 40 36.8 4.8 -9.90853
923 4 41.6 38.4 3.2 -13.4027
892 3 43.2 36.8 4.8 -11.3551
925 1 44.8 38.4 3.2 -11.8829
894 3 46.4 36.8 4.8 -11.3508
927 1 48 38.4 3.2 -11.857
896 2 49.6 36.8 4.8 -9.9336
898 2 1.6 40 4.8 -9.9025
929 1 0 41.6 3.2 -11.8416
900 2 4.8 40 4.8 -9.85899
931 1 3.2 41.6 3.2 -11.7572
902 2 8 40 4.8 -9.8877
933 1 6.4 41.6 3.2 -11.7793
904 2 11.2 40 4.8 -9.88927
935 1 9.6 41.6 3.2 -11.8193
906 1 14.4 40 4.8 -11.7695
937 2 12.8 41.6 3.2 -9.8344
908 2 17.6 40 4.8 -9.86128
939 2 16 41.6 3.2 -9.8361
910 2 20.8 40 4.8 -9.9369
941 2 19.2 41.6 3.2 -9.92185
912 4 24 40 4.8 -13.3065
943 2 22.4 41.6 3.2 -9.92845
945 2 25.6 41.6 3.2 -9.84053
914 1 27.2 40 4.8 -11.743
947 2 28.8 41.6 3.2 -9.89379
916 2 30.4 40 4.8 -9.88321
949 2 32 41.6 3.2 -9.88094
918 2 33.6 40 4.8 -9.90632
951 2 35.2 41.6 3.2 -9.86271
920 4 36.8 40 4.8 -13.423
953 2 38.4 41.6 3.2 -9.88582
922 2 40 40 4.8 -9.88819
955 4 41.6 41.6 3.2 -13.3796
924 3 43.2 40 4.8 -11.3321
957 1 44.8 41.6 3.2 -11.8694
926 3 46.4 40 4.8 -11.3061
959 1 48 41.6 3.2 -11.8411
928 3 49.6 40 4.8 -11.2971
930 3 1.6 43.2 4.8 -11.3562
961 1 0 44.8 3.2 -11.8698
932 2 4.8 43.2 4.8 -9.84311
963 1 3.2 44.8 3.2 -11.8568
934 2 8 43.2 4.8 -9.84589
965 4 6.4 44.8 3.2 -13.3255
936 2 11.2 43.2 4.8 -9.82865
967 2 9.6 44.8 3.2 -9.84142
938 4 14.4 43.2 4.8 -13.2789
969 2 12.8 44.8 3.2 -9.78786
940 4 17.6 43.2 4.8 -13.3972
971 2 16 44.8 3.2 -9.83857
942 2 20.8 43.2 4.8 -9.86913
973 2 19.2 44.8 3.2 -9.92198
944 2 24 43.2 4.8 -9.86874
975 2 22.4 44.8 3.2 -9.93686
977 4 25.6 44.8 3.2 -13.4213
946 4 27.2 43.2 4.8 -13.369
979 2 28.8 44.8 3.2 -9.90453
948 2 30.4 43.2 4.8 -9.86498
981 2 32 44.8 3.2 -9.85375
950 2 33.6 43.2 4.8 -9.85472
983 1 35.2 44.8 3.2 -11.7249
952 2 36.8 43.2 4.8 -9.90744
985 2 38.4 44.8 3.2 -9.89104
954 2 40 43.2 4.8 -9.886
987 4 41.6 44.8 3.2 -13.3821
956 3 43.2 43.2 4.8 -11.3057
989 1 44.8 44.8 3.2 -11.8695
958 3 46.4 43.2 4.8 -11.3091
991 1 48 44.8 3.2 -11.8555
960 3 49.6 43.2 4.8 -11.3366
962 3 1.6 46.4 4.8 -11.3352
993 1 0 48 3.2 -11.8554
964 3 4.8 46.4 4.8 -11.3004
995 4 3.2 48 3.2 -13.3833
966 2 8 46.4 4.8 -9.81702
997 1 6.4 48 3.2 -11.839
968 1 11.2 46.4 4.8 -11.7274
999 4 9.6 48 3.2 -13.3327
970 4 14.4 46.4 4.8 -13.3049
1001 2 12.8 48 3.2 -9.80277
972 2 17.6 46.4 4.8 -9.92317
1003 2 16 48 3.2 -9.88109
974 2 20.8 46.4 4.8 -9.92299
1005 2 19.2 48 3.2 -9.88915
976 2 24 46.4 4.8 -9.94483
1007 2 22.4 48 3.2 -9.89679
1009 2 25.6 48 3.2 -9.9206
978 2 27.2 46.4 4.8 -9.93561
1011 2 28.8 48 3.2 -9.9694
980 2 30.4 46.4 4.8 -9.92838
1013 2 32 48 3.2 -9.90656
982 2 33.6 46.4 4.8 -9.8836
1015 1 35.2 48 3.2 -11.8562
984 2 36.8 46.4 4.8 -9.97211
1017 2 38.4 48 3.2 -9.91525
986 3 40 46.4 4.8 -11.4282
1019 1 41.6 48 3.2 -11.8812
988 3 43.2 46.4 4.8 -11.2759
1021 1 44.8 48 3.2 -11.8415
990 3 46.4 46.4 4.8 -11.2753
1023 1 48 48 3.2 -11.8415
992 3 49.6 46.4 4.8 -11.3073
994 3 1.6 49.6 4.8 -11.3392
996 3 4.8 49.6 4.8 -11.2331
998 2 8 49.6 4.8 -9.72303
1000 2 11.2 49.6 4.8 -9.84067
1002 2 14.4 49.6 4.8 -9.88356
1004 2 17.6 49.6 4.8 -9.89518
1006 2 20.8 49.6 4.8 -9.90998
1008 2 24 49.6 4.8 -9.8991
1010 2 27.2 49.6 4.8 -9.98725
1012 2 30.4 49.6 4.8 -10.0073
1014 3 33.6 49.6 4.8 -11.4069
1016 3 36.8 49.6 4.8 -11.4117
1018 3 40 49.6 4.8 -11.3863
1020 3 43.2 49.6 4.8 -11.2417
1022 3 46.4 49.6 4.8 -11.2414
1024 3 49.6 49.6 4.8 -11.2753
1025 4 0 0 6.4 -13.3639
1026 3 1.6 1.6 8 -11.3057
1027 1 3.2 0 6.4 -11.8568
1028 3 4.8 1.6 8 -11.2916
1029 1 6.4 0 6.4 -11.7232
1030 2 8 1.6 8 -9.88234
1031 1 9.6 0 6.4 -11.7399
1032 2 11.2 1.6 8 -9.92612
1033 2 12.8 0 6.4 -9.86339
1034 3 14.4 1.6 8 -11.3544
1035 1 16 0 6.4 -11.8116
1036 3 17.6 1.6 8 -11.2389
1037 2 19.2 0 6.4 -9.81752
1038 2 20.8 1.6 8 -9.83616
1039 2 22.4 0 6.4 -9.87624
1040 3 24 1.6 8 -11.2975
1041 2 25.6 0 6.4 -9.89371
1042 3 27.2 1.6 8 -11.23
1043 4 28.8 0 6.4 -13.4656
1044 2 30.4 1.6 8 -9.94503
1045 3 32 0 6.4 -11.3844
1046 3 33.6 1.6 8 -11.4386
1047 1 35.2 0 6.4 -11.8485
1048 2 36.8 1.6 8 -9.92858
1049 4 38.4 0 6.4 -13.4235
1050 3 40 1.6 8 -11.3872
1051 1 41.6 0 6.4 -11.8431
1052 3 43.2 1.6 8 -11.2759
1053 1 44.8 0 6.4 -11.8416
1054 3 46.4 1.6 8 -11.2417
1055 1 48 0 6.4 -11.8557
1056 3 49.6 1.6 8 -11.2378
1057 1 0 3.2 6.4 -11.8695
1058 3 1.6 4.8 8 -11.2697
1059 1 3.2 3.2 6.4 -11.7952
1060 2 4.8 4.8 8 -9.80703
1061 1 6.4 3.2 6.4 -11.7646
1062 2 8 4.8 8 -9.8358
1063 2 9.6 3.2 6.4 -9.82374
1064 2 11.2 4.8 8 -9.89828
1065 2 12.8 3.2 6.4 -9.92647
1066 2 14.4 4.8 8 -9.88349
1067 1 16 3.2 6.4 -11.7903
1068 3 17.6 4.8 8 -11.2411
1069 1 19.2 3.2 6.4 -11.8042
1070 3 20.8 4.8 8 -11.2019
1071 4 22.4 3.2 6.4 -13.3324
1072 3 24 4.8 8 -11.3336
1073 1 25.6 3.2 6.4 -11.858
1074 2 27.2 4.8 8 -9.83933
1075 1 28.8 3.2 6.4 -11.813
1076 3 30.4 4.8 8 -11.3553
1077 4 32 3.2 6.4 -13.4418
1078 3 33.6 4.8 8 -11.4143
1079 1 35.2 3.2 6.4 -11.8262
1080 2 36.8 4.8 8 -9.92753
1081 4 38.4 3.2 6.4 -13.3716
1082 3 40 4.8 8 -11.3596
1083 1 41.6 3.2 6.4 -11.8552
1084 3 43.2 4.8 8 -11.242
1085 1 44.8 3.2 6.4 -11.8415
1086 3 46.4 4.8 8 -11.2417
1087 1 48 3.2 6.4 -11.8556
1088 3 49.6 4.8 8 -11.2761
1089 1 0 6.4 6.4 -11.8284
1090 2 1.6 8 8 -9.88689
1091 1 3.2 6.4 6.4 -11.7475
1092 2 4.8 8 8 -9.8352
1093 1 6.4 6.4 6.4 -11.704
1094 2 8 8 8 -9.83642
1095 1 9.6 6.4 6.4 -11.7201
1096 2 11.2 8 8 -9.87421
1097 2 12.8 6.4 6.4 -9.85525
1098 2 14.4 8 8 -9.9642
1099 1 16 6.4 6.4 -11.8342
1100 3 17.6 8 8 -11.3234
1101 1 19.2 6.4 6.4 -11.7796
1102 2 20.8 8 8 -9.83471
1103 1 22.4 6.4 6.4 -11.8174