ITEM: TIMESTEP
0
ITEM: NUMBER OF ATOMS
8192
ITEM: BOX BOUNDS pp pp pp
0.0000000000000000e+00 5.1200000000000003e+01
0.0000000000000000e+00 5.1200000000000003e+01
0.0000000000000000e+00 5.1200000000000003e+01
ITEM: ATOMS id type x y z c_eng
1 1 0 0 0 -11.8416
2 3 1.6 1.6 1.6 -11.3044
3 1 3.2 0 0 -11.7975
4 2 4.8 1.6 1.6 -9.89169
5 1 6.4 0 0 -11.791
6 2 8 1.6 1.6 -9.86875
7 1 9.6 0 0 -11.7528
8 2 11.2 1.6 1.6 -9.88777
9 2 12.8 0 0 -9.86295
10 2 14.4 1.6 1.6 -9.89175
11 2 16 0 0 -9.88591
12 2 17.6 1.6 1.6 -9.89981
13 1 19.2 0 0 -11.7747
14 2 20.8 1.6 1.6 -9.91873
15 2 22.4 0 0 -9.89917
16 2 24 1.6 1.6 -9.88259
17 2 25.6 0 0 -9.90311
18 2 27.2 1.6 1.6 -9.92894
19 2 28.8 0 0 -9.934
20 3 30.4 1.6 1.6 -11.3948
21 2 32 0 0 -9.88459
22 2 33.6 1.6 1.6 -9.8219
23 1 35.2 0 0 -11.7671
24 3 36.8 1.6 1.6 -11.2981
25 1 38.4 0 0 -11.8032
26 3 40 1.6 1.6 -11.2727
27 4 41.6 0 0 -13.3578
28 3 43.2 1.6 1.6 -11.2759
29 1 44.8 0 0 -11.8556
30 3 46.4 1.6 1.6 -11.2414
31 1 48 0 0 -11.8417
32 3 49.6 1.6 1.6 -11.2414
33 1 0 3.2 0 -11.8554
34 3 1.6 4.8 1.6 -11.3049
35 4 3.2 3.2 0 -13.4015
36 2 4.8 4.8 1.6 -9.8692
37 2 6.4 3.2 0 -9.84761
38 2 8 4.8 1.6 -9.9055
39 2 9.6 3.2 0 -9.82981
40 2 11.2 4.8 1.6 -9.90069
41 2 12.8 3.2 0 -9.92755
42 2 14.4 4.8 1.6 -9.92942
43 3 16 3.2 0 -11.3454
44 1 17.6 4.8 1.6 -11.8299
45 2 19.2 3.2 0 -9.86504
46 1 20.8 4.8 1.6 -11.764
47 2 22.4 3.2 0 -9.84369
48 2 24 4.8 1.6 -9.89857
49 2 25.6 3.2 0 -9.87404
50 3 27.2 4.8 1.6 -11.3684
51 2 28.8 3.2 0 -9.93087
52 3 30.4 4.8 1.6 -11.4024
53 2 32 3.2 0 -9.90453
54 4 33.6 4.8 1.6 -13.3787
55 4 35.2 3.2 0 -13.2869
56 3 36.8 4.8 1.6 -11.3231
57 4 38.4 3.2 0 -13.3766
58 3 40 4.8 1.6 -11.3881
59 1 41.6 3.2 0 -11.8587
60 3 43.2 4.8 1.6 -11.3337
61 1 44.8 3.2 0 -11.8413
62 3 46.4 4.8 1.6 -11.2417
63 1 48 3.2 0 -11.8416
64 3 49.6 4.8 1.6 -11.2414
65 1 0 6.4 0 -11.8411
66 3 1.6 8 1.6 -11.1654
67 1 3.2 6.4 0 -11.8126
68 2 4.8 8 1.6 -9.83486
69 4 6.4 6.4 0 -13.3654
70 2 8 8 1.6 -9.90021
71 4 9.6 6.4 0 -13.3026
72 2 11.2 8 1.6 -9.91447
73 2 12.8 6.4 0 -9.88555
74 4 14.4 8 1.6 -13.4892
75 2 16 6.4 0 -9.9291
76 2 17.6 8 1.6 -9.94338
77 2 19.2 6.4 0 -9.85705
78 2 20.8 8 1.6 -9.85899
79 2 22.4 6.4 0 -9.83805
80 2 24 8 1.6 -9.92389
81 2 25.6 6.4 0 -9.93388
82 2 27.2 8 1.6 -9.85795
83 4 28.8 6.4 0 -13.3559
84 2 30.4 8 1.6 -9.86275
85 2 32 6.4 0 -9.91851
86 2 33.6 8 1.6 -9.81785
87 4 35.2 6.4 0 -13.3548
88 2 36.8 8 1.6 -9.84305
89 2 38.4 6.4 0 -9.87832
90 2 40 8 1.6 -9.84319
91 2 41.6 6.4 0 -9.85813
92 2 43.2 8 1.6 -9.80488
93 1 44.8 6.4 0 -11.814
94 3 46.4 8 1.6 -11.1651
95 1 48 6.4 0 -11.8558
96 3 49.6 8 1.6 -11.2045
97 1 0 9.6 0 -11.7886
98 2 1.6 11.2 1.6 -9.7851
99 1 3.2 9.6 0 -11.7901
100 2 4.8 11.2 1.6 -9.86569
101 2 6.4 9.6 0 -9.86667
102 4 8 11.2 1.6 -13.3366
103 2 9.6 9.6 0 -9.86401
104 2 11.2 11.2 1.6 -9.8649
105 2 12.8 9.6 0 -9.88959
106 2 14.4 11.2 1.6 -9.94629
107 2 16 9.6 0 -9.95386
108 3 17.6 11.2 1.6 -11.4046
109 2 19.2 9.6 0 -9.89286
110 2 20.8 11.2 1.6 -9.8747
111 1 22.4 9.6 0 -11.6996
112 2 24 11.2 1.6 -9.85366
113 2 25.6 9.6 0 -9.85871
114 2 27.2 11.2 1.6 -9.92137
115 4 28.8 9.6 0 -13.389
116 3 30.4 11.2 1.6 -11.3795
117 2 32 9.6 0 -9.87464
118 2 33.6 11.2 1.6 -9.90175
119 2 35.2 9.6 0 -9.83399
120 2 36.8 11.2 1.6 -9.92314
121 2 38.4 9.6 0 -9.82707
122 2 40 11.2 1.6 -9.87495
123 1 41.6 9.6 0 -11.771
124 2 43.2 11.2 1.6 -9.87394
125 1 44.8 9.6 0 -11.7247
126 2 46.4 11.2 1.6 -9.82906
127 1 48 9.6 0 -11.7759
128 2 49.6 11.2 1.6 -9.84989
129 2 0 12.8 0 -9.90831
130 1 1.6 14.4 1.6 -11.7874
131 2 3.2 12.8 0 -9.81558
132 2 4.8 14.4 1.6 -9.81038
133 4 6.4 12.8 0 -13.3131
134 2 8 14.4 1.6 -9.86444
135 2 9.6 12.8 0 -9.86025
136 2 11.2 14.4 1.6 -9.90379
137 2 12.8 12.8 0 -9.85686
138 2 14.4 14.4 1.6 -9.85836
139 4 16 12.8 0 -13.4227
140 2 17.6 14.4 1.6 -9.83641
141 4 19.2 12.8 0 -13.3371
142 2 20.8 14.4 1.6 -9.82962
143 2 22.4 12.8 0 -9.87184
144 2 24 14.4 1.6 -9.90625
145 2 25.6 12.8 0 -9.89527
146 1 27.2 14.4 1.6 -11.8104
147 3 28.8 12.8 0 -11.3923
148 2 30.4 14.4 1.6 -9.88803
149 3 32 12.8 0 -11.4475
150 2 33.6 14.4 1.6 -9.90664
151 2 35.2 12.8 0 -9.90757
152 2 36.8 14.4 1.6 -9.82732
153 2 38.4 12.8 0 -9.90876
154 1 40 14.4 1.6 -11.8594
155 3 41.6 12.8 0 -11.3494
156 1 43.2 14.4 1.6 -11.8008
157 2 44.8 12.8 0 -9.88732
158 4 46.4 14.4 1.6 -13.375
159 3 48 12.8 0 -11.3568
160 2 49.6 14.4 1.6 -9.84555
161 3 0 16 0 -11.2653
162 1 1.6 17.6 1.6 -11.7324
163 2 3.2 16 0 -9.79311
164 2 4.8 17.6 1.6 -9.86144
165 4 6.4 16 0 -13.2836
166 2 8 17.6 1.6 -9.8488
167 4 9.6 16 0 -13.3164
168 2 11.2 17.6 1.6 -9.86192
169 1 12.8 16 0 -11.7104
170 1 14.4 17.6 1.6 -11.7152
171 2 16 16 0 -9.80402
172 2 17.6 17.6 1.6 -9.75473
173 1 19.2 16 0 -11.7239
174 2 20.8 17.6 1.6 -9.72194
175 2 22.4 16 0 -9.90628
176 2 24 17.6 1.6 -9.94606
177 2 25.6 16 0 -9.92947
178 2 27.2 17.6 1.6 -9.90351
179 3 28.8 16 0 -11.3357
180 1 30.4 17.6 1.6 -11.8423
181 3 32 16 0 -11.3291
182 1 33.6 17.6 1.6 -11.8167
183 2 35.2 16 0 -9.85937
184 1 36.8 17.6 1.6 -11.8553
185 3 38.4 16 0 -11.2718
186 4 40 17.6 1.6 -13.3839
187 3 41.6 16 0 -11.2761
188 1 43.2 17.6 1.6 -11.8259
189 3 44.8 16 0 -11.2024
190 1 46.4 17.6 1.6 -11.798
191 3 48 16 0 -11.3343
192 1 49.6 17.6 1.6 -11.8188
193 3 0 19.2 0 -11.1992
194 1 1.6 20.8 1.6 -11.7697
195 2 3.2 19.2 0 -9.89721
196 2 4.8 20.8 1.6 -9.88906
197 2 6.4 19.2 0 -9.83701
198 2 8 20.8 1.6 -9.78674
199 1 9.6 19.2 0 -11.8104
200 2 11.2 20.8 1.6 -9.88244
201 2 12.8 19.2 0 -9.83984
202 1 14.4 20.8 1.6 -11.7593
203 2 16 19.2 0 -9.84809
204 2 17.6 20.8 1.6 -9.86843
205 1 19.2 19.2 0 -11.7119
206 2 20.8 20.8 1.6 -9.85451
207 4 22.4 19.2 0 -13.3352
208 3 24 20.8 1.6 -11.3528
209 2 25.6 19.2 0 -9.954
210 3 27.2 20.8 1.6 -11.4661
211 3 28.8 19.2 0 -11.4316
212 2 30.4 20.8 1.6 -9.84986
213 3 32 19.2 0 -11.2751
214 1 33.6 20.8 1.6 -11.8418
215 3 35.2 19.2 0 -11.1642
216 1 36.8 20.8 1.6 -11.8552
217 3 38.4 19.2 0 -11.3076
218 4 40 20.8 1.6 -13.3839
219 3 41.6 19.2 0 -11.3068
220 1 43.2 20.8 1.6 -11.8694
221 3 44.8 19.2 0 -11.242
222 1 46.4 20.8 1.6 -11.8278
223 3 48 19.2 0 -11.2042
224 1 49.6 20.8 1.6 -11.7695
225 2 0 22.4 0 -9.86163
226 2 1.6 24 1.6 -9.85674
227 2 3.2 22.4 0 -9.91997
228 2 4.8 24 1.6 -9.86549
229 1 6.4 22.4 0 -11.8289
230 3 8 24 1.6 -11.1975
231 1 9.6 22.4 0 -11.7984
232 3 11.2 24 1.6 -11.3207
233 2 12.8 22.4 0 -9.88125
234 2 14.4 24 1.6 -9.90876
235 4 16 22.4 0 -13.4181
236 2 17.6 24 1.6 -9.88238
237 2 19.2 22.4 0 -9.89175
238 2 20.8 24 1.6 -9.82945
239 2 22.4 22.4 0 -9.84536
240 4 24 24 1.6 -13.4223
241 4 25.6 22.4 0 -13.4166
242 4 27.2 24 1.6 -13.4217
243 2 28.8 22.4 0 -9.92429
244 2 30.4 24 1.6 -9.85079
245 2 32 22.4 0 -9.87456
246 1 33.6 24 1.6 -11.8463
247 3 35.2 22.4 0 -11.3534
248 1 36.8 24 1.6 -11.8469
249 3 38.4 22.4 0 -11.3368
250 1 40 24 1.6 -11.8262
251 3 41.6 22.4 0 -11.3091
252 4 43.2 24 1.6 -13.4044
253 3 44.8 22.4 0 -11.2714
254 4 46.4 24 1.6 -13.3746
255 2 48 22.4 0 -9.7798
256 4 49.6 24 1.6 -13.3196
257 2 0 25.6 0 -9.90612
259 2 3.2 25.6 0 -9.91612
261 4 6.4 25.6 0 -13.3775
263 4 9.6 25.6 0 -13.3754
265 2 12.8 25.6 0 -9.85991
267 2 16 25.6 0 -9.9369
269 2 19.2 25.6 0 -9.87672
271 2 22.4 25.6 0 -9.90603
273 2 25.6 25.6 0 -9.87486
275 2 28.8 25.6 0 -9.89081
277 2 32 25.6 0 -9.88913
279 3 35.2 25.6 0 -11.4349
281 3 38.4 25.6 0 -11.329
283 3 41.6 25.6 0 -11.2734
285 3 44.8 25.6 0 -11.2973
287 2 48 25.6 0 -9.8419
258 2 1.6 27.2 1.6 -9.88414
289 2 0 28.8 0 -9.89875
260 2 4.8 27.2 1.6 -9.86135
291 2 3.2 28.8 0 -9.90632
262 2 8 27.2 1.6 -9.83409
293 2 6.4 28.8 0 -9.86087
264 3 11.2 27.2 1.6 -11.3601
295 1 9.6 28.8 0 -11.845
266 2 14.4 27.2 1.6 -9.90739
297 4 12.8 28.8 0 -13.4286
268 2 17.6 27.2 1.6 -9.92637
299 2 16 28.8 0 -9.90086
270 2 20.8 27.2 1.6 -9.91181
301 4 19.2 28.8 0 -13.3939
272 2 24 27.2 1.6 -9.92322
303 4 22.4 28.8 0 -13.4452
305 2 25.6 28.8 0 -9.921
274 2 27.2 27.2 1.6 -9.87241
307 3 28.8 28.8 0 -11.3608
276 1 30.4 27.2 1.6 -11.832
309 3 32 28.8 0 -11.2018
278 1 33.6 27.2 1.6 -11.841
311 3 35.2 28.8 0 -11.3699
280 1 36.8 27.2 1.6 -11.8665
313 3 38.4 28.8 0 -11.3076
282 1 40 27.2 1.6 -11.7664
315 3 41.6 28.8 0 -11.3019
284 4 43.2 27.2 1.6 -13.4047
317 2 44.8 28.8 0 -9.9331
286 2 46.4 27.2 1.6 -9.90547
319 2 48 28.8 0 -9.88075
288 2 49.6 27.2 1.6 -9.83707
290 2 1.6 30.4 1.6 -9.84317
321 4 0 32 0 -13.3428
292 2 4.8 30.4 1.6 -9.89285
323 1 3.2 32 0 -11.7512
294 3 8 30.4 1.6 -11.2368
325 1 6.4 32 0 -11.7883
296 3 11.2 30.4 1.6 -11.3356
327 1 9.6 32 0 -11.8413
298 2 14.4 30.4 1.6 -9.92827
329 1 12.8 32 0 -11.8204
300 2 17.6 30.4 1.6 -9.89196
331 2 16 32 0 -9.88455
302 2 20.8 30.4 1.6 -9.92146
333 2 19.2 32 0 -9.88665
304 2 24 30.4 1.6 -9.92199
335 2 22.4 32 0 -9.90577
337 2 25.6 32 0 -9.91485
306 4 27.2 30.4 1.6 -13.4063
339 3 28.8 32 0 -11.3024
308 1 30.4 30.4 1.6 -11.8568
341 3 32 32 0 -11.2759
310 1 33.6 30.4 1.6 -11.8673
343 3 35.2 32 0 -11.3922
312 2 36.8 30.4 1.6 -9.81766
345 2 38.4 32 0 -9.90953
314 1 40 30.4 1.6 -11.8402
347 3 41.6 32 0 -11.3684
316 2 43.2 30.4 1.6 -9.89451
349 2 44.8 32 0 -9.93824
318 2 46.4 30.4 1.6 -9.96371
351 2 48 32 0 -9.93966
320 2 49.6 30.4 1.6 -9.88442
322 2 1.6 33.6 1.6 -9.8669
353 1 0 35.2 0 -11.8571
324 2 4.8 33.6 1.6 -9.83426
355 1 3.2 35.2 0 -11.7872
326 3 8 33.6 1.6 -11.2669
357 1 6.4 35.2 0 -11.8007
328 3 11.2 33.6 1.6 -11.2374
359 1 9.6 35.2 0 -11.8305
330 2 14.4 33.6 1.6 -9.78979
361 1 12.8 35.2 0 -11.777
332 1 17.6 33.6 1.6 -11.7659
363 2 16 35.2 0 -9.83576
334 4 20.8 33.6 1.6 -13.3674
365 2 19.2 35.2 0 -9.89289
336 2 24 33.6 1.6 -9.85992
367 2 22.4 35.2 0 -9.8721
369 3 25.6 35.2 0 -11.3262
338 4 27.2 33.6 1.6 -13.318
371 3 28.8 35.2 0 -11.3362
340 1 30.4 33.6 1.6 -11.8112
373 3 32 35.2 0 -11.239
342 1 33.6 33.6 1.6 -11.8564
375 3 35.2 35.2 0 -11.3758
344 2 36.8 33.6 1.6 -9.92641
377 3 38.4 35.2 0 -11.3848
346 2 40 33.6 1.6 -9.88456
379 2 41.6 35.2 0 -9.94624
348 2 43.2 33.6 1.6 -9.91839
381 1 44.8 35.2 0 -11.8037
350 3 46.4 33.6 1.6 -11.352
383 1 48 35.2 0 -11.8809
352 3 49.6 33.6 1.6 -11.3575
354 3 1.6 36.8 1.6 -11.2651
385 1 0 38.4 0 -11.8413
356 2 4.8 36.8 1.6 -9.80597
387 1 3.2 38.4 0 -11.8259
358 2 8 36.8 1.6 -9.87116
389 1 6.4 38.4 0 -11.8091
360 2 11.2 36.8 1.6 -9.81663
391 2 9.6 38.4 0 -9.8587
362 2 14.4 36.8 1.6 -9.85945
393 2 12.8 38.4 0 -9.88091
364 2 17.6 36.8 1.6 -9.82389
395 2 16 38.4 0 -9.86211
366 2 20.8 36.8 1.6 -9.86162
397 2 19.2 38.4 0 -9.77847
368 4 24 36.8 1.6 -13.41
399 3 22.4 38.4 0 -11.2676
401 3 25.6 38.4 0 -11.3343
370 4 27.2 36.8 1.6 -13.4172
403 3 28.8 38.4 0 -11.3298
372 1 30.4 36.8 1.6 -11.7991
405 2 32 38.4 0 -9.7774
374 1 33.6 36.8 1.6 -11.7776
407 2 35.2 38.4 0 -9.83477
376 2 36.8 36.8 1.6 -9.84868
409 1 38.4 38.4 0 -11.801
378 2 40 36.8 1.6 -9.90134
411 2 41.6 38.4 0 -9.84998
380 2 43.2 36.8 1.6 -9.85897
413 1 44.8 38.4 0 -11.8041
382 3 46.4 36.8 1.6 -11.2408
415 1 48 38.4 0 -11.8414
384 3 49.6 36.8 1.6 -11.3083
386 3 1.6 40 1.6 -11.2387
417 1 0 41.6 0 -11.8697
388 3 4.8 40 1.6 -11.1993
419 4 3.2 41.6 0 -13.365
390 3 8 40 1.6 -11.3154
421 1 6.4 41.6 0 -11.8276
392 1 11.2 40 1.6 -11.8136
423 2 9.6 41.6 0 -9.89409
394 2 14.4 40 1.6 -9.83603
425 3 12.8 41.6 0 -11.3498
396 1 17.6 40 1.6 -11.7866
427 3 16 41.6 0 -11.2591
398 1 20.8 40 1.6 -11.7595
429 2 19.2 41.6 0 -9.77333
400 1 24 40 1.6 -11.7859
431 3 22.4 41.6 0 -11.1968
433 2 25.6 41.6 0 -9.81036
402 4 27.2 40 1.6 -13.3954
435 2 28.8 41.6 0 -9.87176
404 2 30.4 40 1.6 -9.79161
437 3 32 41.6 0 -11.317
406 4 33.6 40 1.6 -13.3553
439 2 35.2 41.6 0 -9.93109
408 2 36.8 40 1.6 -9.88587
441 1 38.4 41.6 0 -11.8049
410 2 40 40 1.6 -9.86774
443 1 41.6 41.6 0 -11.7888
412 2 43.2 40 1.6 -9.86558
445 1 44.8 41.6 0 -11.7981
414 3 46.4 40 1.6 -11.2374
447 1 48 41.6 0 -11.8556
416 3 49.6 40 1.6 -11.2423
418 3 1.6 43.2 1.6 -11.2381
449 1 0 44.8 0 -11.8415
420 3 4.8 43.2 1.6 -11.2387
451 1 3.2 44.8 0 -11.8557
422 2 8 43.2 1.6 -9.85675
453 1 6.4 44.8 0 -11.7744
424 1 11.2 43.2 1.6 -11.8021
455 2 9.6 44.8 0 -9.88294
426 4 14.4 43.2 1.6 -13.439
457 3 12.8 44.8 0 -11.4066
428 1 17.6 43.2 1.6 -11.8264
459 3 16 44.8 0 -11.3605
430 1 20.8 43.2 1.6 -11.788
461 3 19.2 44.8 0 -11.1955
432 1 24 43.2 1.6 -11.729
463 3 22.4 44.8 0 -11.2301
465 2 25.6 44.8 0 -9.88486
434 2 27.2 43.2 1.6 -9.83978
467 2 28.8 44.8 0 -9.90673
436 1 30.4 43.2 1.6 -11.8184
469 3 32 44.8 0 -11.4368
438 2 33.6 43.2 1.6 -9.91367
471 2 35.2 44.8 0 -9.89213
440 2 36.8 43.2 1.6 -9.90229
473 1 38.4 44.8 0 -11.801
442 2 40 43.2 1.6 -9.86729
475 1 41.6 44.8 0 -11.8035
444 2 43.2 43.2 1.6 -9.85647
477 1 44.8 44.8 0 -11.812
446 3 46.4 43.2 1.6 -11.24
479 1 48 44.8 0 -11.8416
448 3 49.6 43.2 1.6 -11.2036
450 3 1.6 46.4 1.6 -11.2417
481 1 0 48 0 -11.8417
452 3 4.8 46.4 1.6 -11.2732
483 1 3.2 48 0 -11.8556
454 2 8 46.4 1.6 -9.86392
485 4 6.4 48 0 -13.3785
456 1 11.2 46.4 1.6 -11.8132
487 2 9.6 48 0 -9.89178
458 4 14.4 46.4 1.6 -13.3769
489 2 12.8 48 0 -9.88915
460 4 17.6 46.4 1.6 -13.3499
491 2 16 48 0 -9.87422
462 1 20.8 46.4 1.6 -11.7832
493 2 19.2 48 0 -9.84106
464 2 24 46.4 1.6 -9.85054
495 2 22.4 48 0 -9.90878
497 2 25.6 48 0 -9.87163
466 2 27.2 46.4 1.6 -9.92308
499 4 28.8 48 0 -13.3613
468 2 30.4 46.4 1.6 -9.89254
501 2 32 48 0 -9.89863
470 2 33.6 46.4 1.6 -9.93149
503 1 35.2 48 0 -11.7726
472 2 36.8 46.4 1.6 -9.8454
505 1 38.4 48 0 -11.7531
474 2 40 46.4 1.6 -9.86071
507 1 41.6 48 0 -11.7992
476 3 43.2 46.4 1.6 -11.2373
509 1 44.8 48 0 -11.8416
478 3 46.4 46.4 1.6 -11.242
511 1 48 48 0 -11.8417
480 3 49.6 46.4 1.6 -11.2417
482 3 1.6 49.6 1.6 -11.2417
484 3 4.8 49.6 1.6 -11.3347
486 3 8 49.6 1.6 -11.3145
488 2 11.2 49.6 1.6 -9.83839
490 1 14.4 49.6 1.6 -11.776
492 2 17.6 49.6 1.6 -9.85849
494 2 20.8 49.6 1.6 -9.88077
496 2 24 49.6 1.6 -9.96255
498 2 27.2 49.6 1.6 -9.91533
500 2 30.4 49.6 1.6 -9.93626
502 2 33.6 49.6 1.6 -9.84545
504 3 36.8 49.6 1.6 -11.2582
506 3 40 49.6 1.6 -11.2648
508 3 43.2 49.6 1.6 -11.2764
510 3 46.4 49.6 1.6 -11.2414
512 3 49.6 49.6 1.6 -11.2414
513 1 0 0 3.2 -11.8555
514 3 1.6 1.6 4.8 -11.3046
515 1 3.2 0 3.2 -11.8704
516 3 4.8 1.6 4.8 -11.2917
517 2 6.4 0 3.2 -9.811
518 2 8 1.6 4.8 -9.89714
519 1 9.6 0 3.2 -11.802
520 2 11.2 1.6 4.8 -9.92614
521 2 12.8 0 3.2 -9.87694
522 2 14.4 1.6 4.8 -9.91282
523 2 16 0 3.2 -9.85345
524 2 17.6 1.6 4.8 -9.83541
525 4 19.2 0 3.2 -13.3863
526 3 20.8 1.6 4.8 -11.3474
527 2 22.4 0 3.2 -9.89521
528 3 24 1.6 4.8 -11.2995
529 1 25.6 0 3.2 -11.8486
530 3 27.2 1.6 4.8 -11.2681
531 2 28.8 0 3.2 -9.81984
532 3 30.4 1.6 4.8 -11.2627
533 1 32 0 3.2 -11.803
534 2 33.6 1.6 4.8 -9.71908
535 4 35.2 0 3.2 -13.2568
536 2 36.8 1.6 4.8 -9.7888
537 4 38.4 0 3.2 -13.3783
538 2 40 1.6 4.8 -9.8105
539 1 41.6 0 3.2 -11.8447
540 3 43.2 1.6 4.8 -11.274
541 1 44.8 0 3.2 -11.8413
542 3 46.4 1.6 4.8 -11.2753
543 1 48 0 3.2 -11.8415
544 3 49.6 1.6 4.8 -11.3089
545 1 0 3.2 3.2 -11.8678
546 3 1.6 4.8 4.8 -11.2358
547 2 3.2 3.2 3.2 -9.79688
548 2 4.8 4.8 4.8 -9.84619
549 4 6.4 3.2 3.2 -13.4245
550 2 8 4.8 4.8 -9.90243
551 2 9.6 3.2 3.2 -9.88457
552 2 11.2 4.8 4.8 -9.96497
553 4 12.8 3.2 3.2 -13.4451
554 3 14.4 4.8 4.8 -11.3842
555 4 16 3.2 3.2 -13.445
556 2 17.6 4.8 4.8 -9.85813
557 3 19.2 3.2 3.2 -11.2837
558 2 20.8 4.8 4.8 -9.80361
559 2 22.4 3.2 3.2 -9.8986
560 2 24 4.8 4.8 -9.89142
561 1 25.6 3.2 3.2 -11.8081
562 2 27.2 4.8 4.8 -9.84209
563 4 28.8 3.2 3.2 -13.3943
564 3 30.4 4.8 4.8 -11.3012
565 1 32 3.2 3.2 -11.8149
566 3 33.6 4.8 4.8 -11.2622
567 4 35.2 3.2 3.2 -13.2969
568 3 36.8 4.8 4.8 -11.237
569 1 38.4 3.2 3.2 -11.8257
570 3 40 4.8 4.8 -11.1962
571 1 41.6 3.2 3.2 -11.8371
572 3 43.2 4.8 4.8 -11.3086
573 1 44.8 3.2 3.2 -11.8414
574 3 46.4 4.8 4.8 -11.2756
575 1 48 3.2 3.2 -11.8558
576 3 49.6 4.8 4.8 -11.2759
577 1 0 6.4 3.2 -11.8413
578 3 1.6 8 4.8 -11.1997
579 1 3.2 6.4 3.2 -11.7894
580 2 4.8 8 4.8 -9.80899
581 2 6.4 6.4 3.2 -9.8703
582 4 8 8 4.8 -13.333
583 2 9.6 6.4 3.2 -9.93689
584 2 11.2 8 4.8 -9.89352
585 2 12.8 6.4 3.2 -9.94889
586 2 14.4 8 4.8 -9.97421
587 3 16 6.4 3.2 -11.428
588 2 17.6 8 4.8 -9.95656
589 2 19.2 6.4 3.2 -9.90933
590 2 20.8 8 4.8 -9.89551
591 2 22.4 6.4 3.2 -9.86688
592 3 24 8 4.8 -11.3872
593 2 25.6 6.4 3.2 -9.90579
594 2 27.2 8 4.8 -9.81953
595 1 28.8 6.4 3.2 -11.7842
596 2 30.4 8 4.8 -9.68776
597 2 32 6.4 3.2 -9.81591
598 2 33.6 8 4.8 -9.84858
599 4 35.2 6.4 3.2 -13.327
600 2 36.8 8 4.8 -9.75383
601 1 38.4 6.4 3.2 -11.7971
602 2 40 8 4.8 -9.74683
603 2 41.6 6.4 3.2 -9.81991
604 3 43.2 8 4.8 -11.2714
605 1 44.8 6.4 3.2 -11.842
606 3 46.4 8 4.8 -11.1648
607 1 48 6.4 3.2 -11.8416
608 3 49.6 8 4.8 -11.2392
609 1 0 9.6 3.2 -11.7895
610 2 1.6 11.2 4.8 -9.79575
611 1 3.2 9.6 3.2 -11.7336
612 2 4.8 11.2 4.8 -9.81326
613 2 6.4 9.6 3.2 -9.86157
614 1 8 11.2 4.8 -11.74
615 2 9.6 9.6 3.2 -9.85893
616 1 11.2 11.2 4.8 -11.7385
617 2 12.8 9.6 3.2 -9.94961
618 2 14.4 11.2 4.8 -9.89142
619 3 16 9.6 3.2 -11.4928
620 2 17.6 11.2 4.8 -9.92907
621 2 19.2 9.6 3.2 -9.91294
622 2 20.8 11.2 4.8 -9.86573
623 1 22.4 9.6 3.2 -11.797
624 2 24 11.2 4.8 -9.92154
625 2 25.6 9.6 3.2 -9.90018
626 2 27.2 11.2 4.8 -9.88101
627 1 28.8 9.6 3.2 -11.7128
628 2 30.4 11.2 4.8 -9.82716
629 1 32 9.6 3.2 -11.733
630 2 33.6 11.2 4.8 -9.85818
631 4 35.2 9.6 3.2 -13.3077
632 2 36.8 11.2 4.8 -9.81218
633 1 38.4 9.6 3.2 -11.7046
634 2 40 11.2 4.8 -9.82992
635 4 41.6 9.6 3.2 -13.3091
636 3 43.2 11.2 4.8 -11.3072
637 1 44.8 9.6 3.2 -11.7718
638 2 46.4 11.2 4.8 -9.87909
639 1 48 9.6 3.2 -11.7581
640 2 49.6 11.2 4.8 -9.82466
641 2 0 12.8 3.2 -9.83554
642 2 1.6 14.4 4.8 -9.83312
643 2 3.2 12.8 3.2 -9.85364
644 2 4.8 14.4 4.8 -9.91729
645 2 6.4 12.8 3.2 -9.85699
646 2 8 14.4 4.8 -9.90365
647 2 9.6 12.8 3.2 -9.88116
648 2 11.2 14.4 4.8 -9.91569
649 2 12.8 12.8 3.2 -9.92063
650 2 14.4 14.4 4.8 -9.9157
651 2 16 12.8 3.2 -9.93936
652 2 17.6 14.4 4.8 -9.9018
653 1 19.2 12.8 3.2 -11.7821
654 2 20.8 14.4 4.8 -9.86546
655 2 22.4 12.8 3.2 -9.87019
656 4 24 14.4 4.8 -13.3961
657 2 25.6 12.8 3.2 -9.90532
658 4 27.2 14.4 4.8 -13.3047
659 2 28.8 12.8 3.2 -9.89659
660 2 30.4 14.4 4.8 -9.85
661 4 32 12.8 3.2 -13.4483
662 4 33.6 14.4 4.8 -13.3869
663 2 35.2 12.8 3.2 -9.90332
664 1 36.8 14.4 4.8 -11.8042
665 2 38.4 12.8 3.2 -9.86664
666 1 40 14.4 4.8 -11.8176
667 3 41.6 12.8 3.2 -11.3452
668 1 43.2 14.4 4.8 -11.8339
669 2 44.8 12.8 3.2 -9.88341
670 2 46.4 14.4 4.8 -9.83835
671 2 48 12.8 3.2 -9.92448
672 4 49.6 14.4 4.8 -13.4217
673 2 0 16 3.2 -9.8687
674 2 1.6 17.6 4.8 -9.89934
675 2 3.2 16 3.2 -9.85926
676 2 4.8 17.6 4.8 -9.86815
677 1 6.4 16 3.2 -11.7599
678 2 8 17.6 4.8 -9.84218
679 2 9.6 16 3.2 -9.88617
680 2 11.2 17.6 4.8 -9.92674
681 4 12.8 16 3.2 -13.3604
682 2 14.4 17.6 4.8 -9.89448
683 2 16 16 3.2 -9.87757
684 2 17.6 17.6 4.8 -9.85908
685 1 19.2 16 3.2 -11.7048
686 2 20.8 17.6 4.8 -9.84113
687 2 22.4 16 3.2 -9.84426
688 2 24 17.6 4.8 -9.88201
689 2 25.6 16 3.2 -9.90528
690 2 27.2 17.6 4.8 -9.90631
691 2 28.8 16 3.2 -9.87573
692 1 30.4 17.6 4.8 -11.7648
693 2 32 16 3.2 -9.863
694 1 33.6 17.6 4.8 -11.8003
695 3 35.2 16 3.2 -11.2975
696 1 36.8 17.6 4.8 -11.8277
697 3 38.4 16 3.2 -11.3073
698 1 40 17.6 4.8 -11.8554
699 3 41.6 16 3.2 -11.2384
700 1 43.2 17.6 4.8 -11.8119
701 2 44.8 16 3.2 -9.78001
702 1 46.4 17.6 4.8 -11.816
703 2 48 16 3.2 -9.89358
704 2 49.6 17.6 4.8 -9.86389
705 2 0 19.2 3.2 -9.85556
706 2 1.6 20.8 4.8 -9.88623
707 2 3.2 19.2 3.2 -9.8509
708 3 4.8 20.8 4.8 -11.3538
709 4 6.4 19.2 3.2 -13.3136
710 2 8 20.8 4.8 -9.82418
711 2 9.6 19.2 3.2 -9.83827
712 2 11.2 20.8 4.8 -9.83097
713 3 12.8 19.2 3.2 -11.2945
714 4 14.4 20.8 4.8 -13.3929
715 2 16 19.2 3.2 -9.86353
716 2 17.6 20.8 4.8 -9.8786
717 1 19.2 19.2 3.2 -11.701
718 2 20.8 20.8 4.8 -9.82367
719 1 22.4 19.2 3.2 -11.7588
720 4 24 20.8 4.8 -13.4034
721 2 25.6 19.2 3.2 -9.93366
722 2 27.2 20.8 4.8 -9.91736
723 2 28.8 19.2 3.2 -9.91689
724 1 30.4 20.8 4.8 -11.7351
725 3 32 19.2 3.2 -11.2315
726 2 33.6 20.8 4.8 -9.77417
727 3 35.2 19.2 3.2 -11.2743
728 1 36.8 20.8 4.8 -11.8418
729 3 38.4 19.2 3.2 -11.307
730 1 40 20.8 4.8 -11.8693
731 3 41.6 19.2 3.2 -11.307
732 1 43.2 20.8 4.8 -11.8674
733 3 44.8 19.2 3.2 -11.2039
734 1 46.4 20.8 4.8 -11.8601
735 3 48 19.2 3.2 -11.2657
736 2 49.6 20.8 4.8 -9.88528
737 2 0 22.4 3.2 -9.86673
738 2 1.6 24 4.8 -9.89291
739 2 3.2 22.4 3.2 -9.83308
740 3 4.8 24 4.8 -11.3686
741 1 6.4 22.4 3.2 -11.8052
742 3 8 24 4.8 -11.2691
743 1 9.6 22.4 3.2 -11.7623
744 2 11.2 24 4.8 -9.86061
745 2 12.8 22.4 3.2 -9.87538
746 2 14.4 24 4.8 -9.90622
747 2 16 22.4 3.2 -9.8935
748 1 17.6 24 4.8 -11.7754
749 2 19.2 22.4 3.2 -9.83822
750 1 20.8 24 4.8 -11.7353
751 2 22.4 22.4 3.2 -9.88271
752 2 24 24 4.8 -9.86854
753 2 25.6 22.4 3.2 -9.91302
754 2 27.2 24 4.8 -9.8937
755 2 28.8 22.4 3.2 -9.94256
756 2 30.4 24 4.8 -9.88175
757 2 32 22.4 3.2 -9.89962
758 4 33.6 24 4.8 -13.4601
759 3 35.2 22.4 3.2 -11.3052
760 1 36.8 24 4.8 -11.8286
761 3 38.4 22.4 3.2 -11.2733
762 4 40 24 4.8 -13.34
763 3 41.6 22.4 3.2 -11.3652
764 2 43.2 24 4.8 -9.87857
765 3 44.8 22.4 3.2 -11.3652
766 4 46.4 24 4.8 -13.4035
767 3 48 22.4 3.2 -11.2945
768 4 49.6 24 4.8 -13.3396
769 4 0 25.6 3.2 -13.2864
771 1 3.2 25.6 3.2 -11.8118
773 1 6.4 25.6 3.2 -11.7685
775 1 9.6 25.6 3.2 -11.7972
777 1 12.8 25.6 3.2 -11.8437
779 2 16 25.6 3.2 -9.86462
781 1 19.2 25.6 3.2 -11.6865
783 2 22.4 25.6 3.2 -9.87933
785 2 25.6 25.6 3.2 -9.90675
787 2 28.8 25.6 3.2 -9.93663
789 3 32 25.6 3.2 -11.3213
791 3 35.2 25.6 3.2 -11.3038
793 2 38.4 25.6 3.2 -9.74854
795 2 41.6 25.6 3.2 -9.83539
797 2 44.8 25.6 3.2 -9.96744
799 2 48 25.6 3.2 -9.85424
770 2 1.6 27.2 4.8 -9.88648
801 1 0 28.8 3.2 -11.742
772 3 4.8 27.2 4.8 -11.3269
803 2 3.2 28.8 3.2 -9.86184
774 3 8 27.2 4.8 -11.2042
805 1 6.4 28.8 3.2 -11.8325
776 3 11.2 27.2 4.8 -11.3342
807 1 9.6 28.8 3.2 -11.8371
778 4 14.4 27.2 4.8 -13.4041
809 2 12.8 28.8 3.2 -9.84449
780 2 17.6 27.2 4.8 -9.81077
811 2 16 28.8 3.2 -9.91321
782 2 20.8 27.2 4.8 -9.84787
813 2 19.2 28.8 3.2 -9.90625
784 2 24 27.2 4.8 -9.93565
815 2 22.4 28.8 3.2 -9.92842
817 4 25.6 28.8 3.2 -13.4294
786 4 27.2 27.2 4.8 -13.4261
819 3 28.8 28.8 3.2 -11.3452
788 4 30.4 27.2 4.8 -13.4215
821 3 32 28.8 3.2 -11.3379
790 4 33.6 27.2 4.8 -13.3761
823 3 35.2 28.8 3.2 -11.3313
792 4 36.8 27.2 4.8 -13.3013
825 3 38.4 28.8 3.2 -11.3283
794 1 40 27.2 4.8 -11.7814
827 2 41.6 28.8 3.2 -9.88716
796 2 43.2 27.2 4.8 -9.89563
829 2 44.8 28.8 3.2 -9.90571
798 3 46.4 27.2 4.8 -11.3563
831 4 48 28.8 3.2 -13.4141
800 2 49.6 27.2 4.8 -9.87243
802 2 1.6 30.4 4.8 -9.87682
833 1 0 32 3.2 -11.747
804 3 4.8 30.4 4.8 -11.4242
835 2 3.2 32 3.2 -9.87175
806 3 8 30.4 4.8 -11.3054
837 4 6.4 32 3.2 -13.4046
808 3 11.2 30.4 4.8 -11.361
839 1 9.6 32 3.2 -11.8567
810 2 14.4 30.4 4.8 -9.88815
841 4 12.8 32 3.2 -13.4
812 2 17.6 30.4 4.8 -9.88427
843 2 16 32 3.2 -9.87436
814 2 20.8 30.4 4.8 -9.90166
845 2 19.2 32 3.2 -9.88102
816 2 24 30.4 4.8 -9.9292
847 2 22.4 32 3.2 -9.89213
849 2 25.6 32 3.2 -9.88319
818 2 27.2 30.4 4.8 -9.88485
851 2 28.8 32 3.2 -9.8373
820 2 30.4 30.4 4.8 -9.84851
853 3 32 32 3.2 -11.274
822 1 33.6 30.4 4.8 -11.7879
855 3 35.2 32 3.2 -11.3516
824 4 36.8 30.4 4.8 -13.4635
857 4 38.4 32 3.2 -13.4349
826 3 40 30.4 4.8 -11.3039
859 2 41.6 32 3.2 -9.89383
828 2 43.2 30.4 4.8 -9.88806
861 4 44.8 32 3.2 -13.3925
830 2 46.4 30.4 4.8 -9.93272
863 2 48 32 3.2 -9.86326
832 2 49.6 30.4 4.8 -9.83659
834 2 1.6 33.6 4.8 -9.90129
865 2 0 35.2 3.2 -9.83617
836 2 4.8 33.6 4.8 -9.96894
867 2 3.2 35.2 3.2 -9.90709
838 2 8 33.6 4.8 -9.89861
869 2 6.4 35.2 3.2 -9.81807
840 3 11.2 33.6 4.8 -11.3494
871 4 9.6 35.2 3.2 -13.3824
842 2 14.4 33.6 4.8 -9.91313
873 1 12.8 35.2 3.2 -11.7608
844 2 17.6 33.6 4.8 -9.84088
875 4 16 35.2 3.2 -13.3212
846 2 20.8 33.6 4.8 -9.81428
877 2 19.2 35.2 3.2 -9.86279
848 2 24 33.6 4.8 -9.83812
879 4 22.4 35.2 3.2 -13.3418
881 2 25.6 35.2 3.2 -9.89209
850 1 27.2 33.6 4.8 -11.7703
883 2 28.8 35.2 3.2 -9.77879
852 1 30.4 33.6 4.8 -11.7414
885 3 32 35.2 3.2 -11.1946
854 4 33.6 33.6 4.8 -13.3217
887 2 35.2 35.2 3.2 -9.91254
856 2 36.8 33.6 4.8 -9.91029
889 1 38.4 35.2 3.2 -11.7724
858 2 40 33.6 4.8 -9.89323
891 2 41.6 35.2 3.2 -9.88917
860 2 43.2 33.6 4.8 -9.87018
893 1 44.8 35.2 3.2 -11.7945
862 2 46.4 33.6 4.8 -9.8922
895 1 48 35.2 3.2 -11.8726
864 2 49.6 33.6 4.8 -9.91631
866 2 1.6 36.8 4.8 -9.92803
897 1 0 38.4 3.2 -11.8417
868 3 4.8 36.8 4.8 -11.2836
899 1 3.2 38.4 3.2 -11.754
870 2 8 36.8 4.8 -9.87087
901 1 6.4 38.4 3.2 -11.7929
872 2 11.2 36.8 4.8 -9.88713
903 2 9.6 38.4 3.2 -9.89421
874 2 14.4 36.8 4.8 -9.85976
905 4 12.8 38.4 3.2 -13.3415
876 4 17.6 36.8 4.8 -13.3988
907 2 16 38.4 3.2 -9.90538
878 2 20.8 36.8 4.8 -9.88686
909 2 19.2 38.4 3.2 -9.89144
880 2 24 36.8 4.8 -9.89151
911 2 22.4 38.4 3.2 -9.90973
913 3 25.6 38.4 3.2 -11.3757
882 4 27.2 36.8 4.8 -13.3439
915 3 28.8 38.4 3.2 -11.2883
884 1 30.4 36.8 4.8 -11.782
917 2 32 38.4 3.2 -9.84808
886 2 33.6 36.8 4.8 -9.80333
919 2 35.2 38.4 3.2 -9.86276
888 2 36.8 36.8 4.8 -9.85935
921 1 38.4 38.4 3.2 -11.7516
890 2 40 36.8 4.8 -9.85908
923 2 41.6 38.4 3.2 -9.90937
892 2 43.2 36.8 4.8 -9.94603
925 4 44.8 38.4 3.2 -13.3549
894 3 46.4 36.8 4.8 -11.3219
927 1 48 38.4 3.2 -11.8271
896 3 49.6 36.8 4.8 -11.3872
898 2 1.6 40 4.8 -9.82721
929 1 0 41.6 3.2 -11.803
900 2 4.8 40 4.8 -9.83685
931 1 3.2 41.6 3.2 -11.8007
902 2 8 40 4.8 -9.92798
933 1 6.4 41.6 3.2 -11.8273
904 2 11.2 40 4.8 -9.87058
935 3 9.6 41.6 3.2 -11.3605
906 2 14.4 40 4.8 -9.95406
937 2 12.8 41.6 3.2 -9.88989
908 2 17.6 40 4.8 -9.90009
939 3 16 41.6 3.2 -11.4382
910 2 20.8 40 4.8 -9.90752
941 3 19.2 41.6 3.2 -11.2807
912 2 24 40 4.8 -9.82614
943 2 22.4 41.6 3.2 -9.80824
945 2 25.6 41.6 3.2 -9.81909
914 4 27.2 40 4.8 -13.3722
947 2 28.8 41.6 3.2 -9.869
916 1 30.4 40 4.8 -11.8194
949 3 32 41.6 3.2 -11.3224
918 4 33.6 40 4.8 -13.3997
951 2 35.2 41.6 3.2 -9.93562
920 2 36.8 40 4.8 -9.89399
953 3 38.4 41.6 3.2 -11.3094
922 2 40 40 4.8 -9.93019
955 2 41.6 41.6 3.2 -9.92154
924 2 43.2 40 4.8 -9.91398
957 4 44.8 41.6 3.2 -13.3549
926 2 46.4 40 4.8 -9.86657
959 1 48 41.6 3.2 -11.8166
928 3 49.6 40 4.8 -11.2891
930 2 1.6 43.2 4.8 -9.85934
961 1 0 44.8 3.2 -11.8136
932 3 4.8 43.2 4.8 -11.3757
963 1 3.2 44.8 3.2 -11.841
934 3 8 43.2 4.8 -11.3701
965 1 6.4 44.8 3.2 -11.8395
936 1 11.2 43.2 4.8 -11.8438
967 2 9.6 44.8 3.2 -9.8843
938 4 14.4 43.2 4.8 -13.4079
969 3 12.8 44.8 3.2 -11.351
940 4 17.6 43.2 4.8 -13.4697
971 3 16 44.8 3.2 -11.4068
942 2 20.8 43.2 4.8 -9.87468
973 2 19.2 44.8 3.2 -9.88712
944 1 24 43.2 4.8 -11.7246
975 2 22.4 44.8 3.2 -9.84217
977 2 25.6 44.8 3.2 -9.88106
946 4 27.2 43.2 4.8 -13.3397
979 2 28.8 44.8 3.2 -9.83775
948 1 30.4 43.2 4.8 -11.7605
981 2 32 44.8 3.2 -9.91158
950 4 33.6 43.2 4.8 -13.3362
983 2 35.2 44.8 3.2 -9.83156
952 1 36.8 43.2 4.8 -11.779
985 2 38.4 44.8 3.2 -9.9042
954 2 40 43.2 4.8 -9.93514
987 3 41.6 44.8 3.2 -11.276
956 3 43.2 43.2 4.8 -11.3216
989 1 44.8 44.8 3.2 -11.8458
958 3 46.4 43.2 4.8 -11.3319
991 1 48 44.8 3.2 -11.8419
960 2 49.6 43.2 4.8 -9.86502
962 3 1.6 46.4 4.8 -11.3865
993 1 0 48 3.2 -11.8553
964 3 4.8 46.4 4.8 -11.4392
995 1 3.2 48 3.2 -11.8812
966 2 8 46.4 4.8 -9.9518
997 4 6.4 48 3.2 -13.4198
968 2 11.2 46.4 4.8 -9.86604
999 2 9.6 48 3.2 -9.86837
970 2 14.4 46.4 4.8 -9.89608
1001 2 12.8 48 3.2 -9.86732
972 2 17.6 46.4 4.8 -9.91271
1003 2 16 48 3.2 -9.88737
974 2 20.8 46.4 4.8 -9.91569
1005 2 19.2 48 3.2 -9.90261
976 2 24 46.4 4.8 -9.90316
1007 2 22.4 48 3.2 -9.92987
1009 2 25.6 48 3.2 -9.86149
978 2 27.2 46.4 4.8 -9.889
1011 1 28.8 48 3.2 -11.8258
980 2 30.4 46.4 4.8 -9.86398
1013 2 32 48 3.2 -9.83737
982 4 33.6 46.4 4.8 -13.2798
1015 4 35.2 48 3.2 -13.3225
984 1 36.8 46.4 4.8 -11.7286
1017 2 38.4 48 3.2 -9.83218
986 2 40 46.4 4.8 -9.91003
1019 1 41.6 48 3.2 -11.8401
988 2 43.2 46.4 4.8 -9.87339
1021 1 44.8 48 3.2 -11.8278
990 3 46.4 46.4 4.8 -11.2718
1023 1 48 48 3.2 -11.8413
992 3 49.6 46.4 4.8 -11.3321
994 3 1.6 49.6 4.8 -11.3679
996 3 4.8 49.6 4.8 -11.3887
998 2 8 49.6 4.8 -9.91895
1000 2 11.2 49.6 4.8 -9.91723
1002 2 14.4 49.6 4.8 -9.8401
1004 2 17.6 49.6 4.8 -9.86503
1006 2 20.8 49.6 4.8 -9.93333
1008 3 24 49.6 4.8 -11.3582
1010 3 27.2 49.6 4.8 -11.3408
1012 3 30.4 49.6 4.8 -11.2971
1014 2 33.6 49.6 4.8 -9.79064
1016 2 36.8 49.6 4.8 -9.86702
1018 2 40 49.6 4.8 -9.88905
1020 3 43.2 49.6 4.8 -11.2975
1022 3 46.4 49.6 4.8 -11.2761
1024 3 49.6 49.6 4.8 -11.307
1025 4 0 0 6.4 -13.3553
1026 2 1.6 1.6 8 -9.8154
1027 1 3.2 0 6.4 -11.8445
1028 2 4.8 1.6 8 -9.76414
1029 4 6.4 0 6.4 -13.3414
1030 2 8 1.6 8 -9.84521
1031 2 9.6 0 6.4 -9.8523
1032 2 11.2 1.6 8 -9.90619
1033 2 12.8 0 6.4 -9.87155
1034 3 14.4 1.6 8 -11.2613
1035 1 16 0 6.4 -11.7886
1036 3 17.6 1.6 8 -11.2329
1037 1 19.2 0 6.4 -11.801
1038 3 20.8 1.6 8 -11.2745
1039 1 22.4 0 6.4 -11.8568
1040 3 24 1.6 8 -11.242
1041 1 25.6 0 6.4 -11.8408
1042 3 27.2 1.6 8 -11.2039
1043 1 28.8 0 6.4 -11.8199
1044 2 30.4 1.6 8 -9.77579
1045 1 32 0 6.4 -11.7437
1046 3 33.6 1.6 8 -11.2212
1047 1 35.2 0 6.4 -11.7533
1048 2 36.8 1.6 8 -9.84071
1049 2 38.4 0 6.4 -9.82906
1050 2 40 1.6 8 -9.83803
1051 2 41.6 0 6.4 -9.8456
1052 3 43.2 1.6 8 -11.361
1053 1 44.8 0 6.4 -11.8568
1054 3 46.4 1.6 8 -11.3044
1055 1 48 0 6.4 -11.8833
1056 3 49.6 1.6 8 -11.2999
1057 1 0 3.2 6.4 -11.809
1058 2 1.6 4.8 8 -9.69133
1059 1 3.2 3.2 6.4 -11.7564
1060 2 4.8 4.8 8 -9.7665
1061 1 6.4 3.2 6.4 -11.7548
1062 2 8 4.8 8 -9.86012
1063 2 9.6 3.2 6.4 -9.92839
1064 2 11.2 4.8 8 -9.90329
1065 2 12.8 3.2 6.4 -9.8638
1066 2 14.4 4.8 8 -9.91626
1067 1 16 3.2 6.4 -11.7878
1068 2 17.6 4.8 8 -9.86439
1069 1 19.2 3.2 6.4 -11.7718
1070 2 20.8 4.8 8 -9.74681
1071 1 22.4 3.2 6.4 -11.7821
1072 3 24 4.8 8 -11.1984
1073 1 25.6 3.2 6.4 -11.814
1074 3 27.2 4.8 8 -11.2389
1075 1 28.8 3.2 6.4 -11.7979
1076 3 30.4 4.8 8 -11.2022
1077 1 32 3.2 6.4 -11.7969
1078 3 33.6 4.8 8 -11.3375
1079 1 35.2 3.2 6.4 -11.7824
1080 3 36.8 4.8 8 -11.2289
1081 1 38.4 3.2 6.4 -11.7287
1082 2 40 4.8 8 -9.74944
1083 1 41.6 3.2 6.4 -11.8145
1084 3 43.2 4.8 8 -11.274
1085 1 44.8 3.2 6.4 -11.8553
1086 3 46.4 4.8 8 -11.27
1087 4 48 3.2 6.4 -13.3839
1088 3 49.6 4.8 8 -11.2321
1089 1 0 6.4 6.4 -11.7834
1090 2 1.6 8 8 -9.78031
1091 1 3.2 6.4 6.4 -11.6955
1092 2 4.8 8 8 -9.79007
1093 2 6.4 6.4 6.4 -9.80726
1094 1 8 8 8 -11.7659
1095 2 9.6 6.4 6.4 -9.90248
1096 2 11.2 8 8 -9.89345
1097 4 12.8 6.4 6.4 -13.4711
1098 2 14.4 8 8 -9.89346
1099 2 16 6.4 6.4 -9.89722
1100 2 17.6 8 8 -9.881
1101 1 19.2 6.4 6.4 -11.7211
1102 2 20.8 8 8 -9.78574
1103 1 22.4 6.4 6.4 -11.7558