ITEM: TIMESTEP
0
ITEM: NUMBER OF ATOMS
8192
ITEM: BOX BOUNDS pp pp pp
0.0000000000000000e+00 5.1200000000000003e+01
0.0000000000000000e+00 5.1200000000000003e+01
0.0000000000000000e+00 5.1200000000000003e+01
ITEM: ATOMS id type x y z c_eng
1 1 0 0 0 -11.8557
2 3 1.6 1.6 1.6 -11.201
3 1 3.2 0 0 -11.8032
4 2 4.8 1.6 1.6 -9.81435
5 2 6.4 0 0 -9.88785
6 2 8 1.6 1.6 -9.87809
7 2 9.6 0 0 -9.85715
8 2 11.2 1.6 1.6 -9.85751
9 4 12.8 0 0 -13.284
10 2 14.4 1.6 1.6 -9.83496
11 1 16 0 0 -11.748
12 2 17.6 1.6 1.6 -9.85007
13 1 19.2 0 0 -11.7627
14 3 20.8 1.6 1.6 -11.3274
15 1 22.4 0 0 -11.8176
16 3 24 1.6 1.6 -11.2392
17 1 25.6 0 0 -11.7848
18 2 27.2 1.6 1.6 -9.81932
19 2 28.8 0 0 -9.86918
20 2 30.4 1.6 1.6 -9.91428
21 4 32 0 0 -13.419
22 2 33.6 1.6 1.6 -9.89314
23 2 35.2 0 0 -9.87155
24 2 36.8 1.6 1.6 -9.87487
25 2 38.4 0 0 -9.92986
26 2 40 1.6 1.6 -9.92992
27 2 41.6 0 0 -9.92408
28 2 43.2 1.6 1.6 -9.88731
29 1 44.8 0 0 -11.774
30 3 46.4 1.6 1.6 -11.3054
31 1 48 0 0 -11.8415
32 3 49.6 1.6 1.6 -11.2036
33 1 0 3.2 0 -11.8553
34 3 1.6 4.8 1.6 -11.3052
35 4 3.2 3.2 0 -13.4017
36 2 4.8 4.8 1.6 -9.83364
37 2 6.4 3.2 0 -9.9063
38 2 8 4.8 1.6 -9.85688
39 2 9.6 3.2 0 -9.89927
40 1 11.2 4.8 1.6 -11.7702
41 2 12.8 3.2 0 -9.86272
42 1 14.4 4.8 1.6 -11.7854
43 3 16 3.2 0 -11.2517
44 1 17.6 4.8 1.6 -11.831
45 2 19.2 3.2 0 -9.89322
46 3 20.8 4.8 1.6 -11.3454
47 1 22.4 3.2 0 -11.7992
48 2 24 4.8 1.6 -9.80541
49 4 25.6 3.2 0 -13.3593
50 2 27.2 4.8 1.6 -9.78077
51 2 28.8 3.2 0 -9.87016
52 3 30.4 4.8 1.6 -11.3592
53 4 32 3.2 0 -13.4343
54 2 33.6 4.8 1.6 -9.92064
55 2 35.2 3.2 0 -9.89796
56 4 36.8 4.8 1.6 -13.3939
57 2 38.4 3.2 0 -9.92145
58 4 40 4.8 1.6 -13.3603
59 2 41.6 3.2 0 -9.85477
60 1 43.2 4.8 1.6 -11.7601
61 4 44.8 3.2 0 -13.3595
62 3 46.4 4.8 1.6 -11.3868
63 1 48 3.2 0 -11.8552
64 3 49.6 4.8 1.6 -11.2417
65 1 0 6.4 0 -11.8675
66 3 1.6 8 1.6 -11.2355
67 2 3.2 6.4 0 -9.85538
68 2 4.8 8 1.6 -9.86862
69 2 6.4 6.4 0 -9.9013
70 4 8 8 1.6 -13.3272
71 2 9.6 6.4 0 -9.81426
72 1 11.2 8 1.6 -11.797
73 2 12.8 6.4 0 -9.74957
74 1 14.4 8 1.6 -11.7838
75 3 16 6.4 0 -11.1254
76 1 17.6 8 1.6 -11.8023
77 2 19.2 6.4 0 -9.85114
78 3 20.8 8 1.6 -11.3505
79 1 22.4 6.4 0 -11.8046
80 3 24 8 1.6 -11.262
81 2 25.6 6.4 0 -9.84235
82 2 27.2 8 1.6 -9.88455
83 2 28.8 6.4 0 -9.9203
84 3 30.4 8 1.6 -11.4069
85 3 32 6.4 0 -11.3733
86 2 33.6 8 1.6 -9.94601
87 4 35.2 6.4 0 -13.4004
88 2 36.8 8 1.6 -9.89679
89 2 38.4 6.4 0 -9.88311
90 4 40 8 1.6 -13.4193
91 2 41.6 6.4 0 -9.88665
92 2 43.2 8 1.6 -9.91228
93 2 44.8 6.4 0 -9.82735
94 3 46.4 8 1.6 -11.4009
95 1 48 6.4 0 -11.8704
96 3 49.6 8 1.6 -11.2748
97 1 0 9.6 0 -11.8154
98 2 1.6 11.2 1.6 -9.80989
99 1 3.2 9.6 0 -11.7728
100 2 4.8 11.2 1.6 -9.82046
101 2 6.4 9.6 0 -9.84244
102 1 8 11.2 1.6 -11.85
103 3 9.6 9.6 0 -11.3373
104 2 11.2 11.2 1.6 -9.79535
105 3 12.8 9.6 0 -11.235
106 1 14.4 11.2 1.6 -11.7834
107 3 16 9.6 0 -11.2432
108 1 17.6 11.2 1.6 -11.8121
109 3 19.2 9.6 0 -11.3499
110 2 20.8 11.2 1.6 -9.84017
111 1 22.4 9.6 0 -11.7773
112 2 24 11.2 1.6 -9.81195
113 2 25.6 9.6 0 -9.85833
114 1 27.2 11.2 1.6 -11.7938
115 3 28.8 9.6 0 -11.2955
116 1 30.4 11.2 1.6 -11.8589
117 3 32 9.6 0 -11.3571
118 1 33.6 11.2 1.6 -11.8162
119 2 35.2 9.6 0 -9.86168
120 1 36.8 11.2 1.6 -11.8221
121 3 38.4 9.6 0 -11.3439
122 2 40 11.2 1.6 -9.83746
123 2 41.6 9.6 0 -9.86567
124 4 43.2 11.2 1.6 -13.3444
125 4 44.8 9.6 0 -13.4199
126 2 46.4 11.2 1.6 -9.90783
127 2 48 9.6 0 -9.84987
128 2 49.6 11.2 1.6 -9.84139
129 4 0 12.8 0 -13.3781
130 2 1.6 14.4 1.6 -9.92667
131 1 3.2 12.8 0 -11.7725
132 2 4.8 14.4 1.6 -9.89585
133 2 6.4 12.8 0 -9.82083
134 3 8 14.4 1.6 -11.3052
135 3 9.6 12.8 0 -11.3931
136 2 11.2 14.4 1.6 -9.88375
137 3 12.8 12.8 0 -11.3303
138 1 14.4 14.4 1.6 -11.7313
139 3 16 12.8 0 -11.1651
140 1 17.6 14.4 1.6 -11.8053
141 3 19.2 12.8 0 -11.358
142 4 20.8 14.4 1.6 -13.3676
143 1 22.4 12.8 0 -11.741
144 2 24 14.4 1.6 -9.9045
145 2 25.6 12.8 0 -9.85826
146 1 27.2 14.4 1.6 -11.8377
147 3 28.8 12.8 0 -11.2045
148 1 30.4 14.4 1.6 -11.8414
149 3 32 12.8 0 -11.2758
150 1 33.6 14.4 1.6 -11.8831
151 3 35.2 12.8 0 -11.235
152 4 36.8 14.4 1.6 -13.375
153 2 38.4 12.8 0 -9.86189
154 2 40 14.4 1.6 -9.85534
155 2 41.6 12.8 0 -9.91573
156 1 43.2 14.4 1.6 -11.782
157 2 44.8 12.8 0 -9.8639
158 1 46.4 14.4 1.6 -11.7857
159 2 48 12.8 0 -9.92817
160 4 49.6 14.4 1.6 -13.3837
161 3 0 16 0 -11.3369
162 2 1.6 17.6 1.6 -9.90648
163 2 3.2 16 0 -9.89168
164 2 4.8 17.6 1.6 -9.82939
165 1 6.4 16 0 -11.7143
166 2 8 17.6 1.6 -9.71745
167 1 9.6 16 0 -11.6987
168 2 11.2 17.6 1.6 -9.84528
169 2 12.8 16 0 -9.8171
170 4 14.4 17.6 1.6 -13.3159
171 2 16 16 0 -9.7495
172 2 17.6 17.6 1.6 -9.80603
173 3 19.2 16 0 -11.3368
174 2 20.8 17.6 1.6 -9.80415
175 2 22.4 16 0 -9.86822
176 2 24 17.6 1.6 -9.86465
177 3 25.6 16 0 -11.3483
178 1 27.2 17.6 1.6 -11.7901
179 3 28.8 16 0 -11.1648
180 1 30.4 17.6 1.6 -11.7943
181 3 32 16 0 -11.3663
182 4 33.6 17.6 1.6 -13.446
183 3 35.2 16 0 -11.3593
184 4 36.8 17.6 1.6 -13.3994
185 3 38.4 16 0 -11.3579
186 1 40 17.6 1.6 -11.8957
187 3 41.6 16 0 -11.4213
188 4 43.2 17.6 1.6 -13.334
189 3 44.8 16 0 -11.2927
190 2 46.4 17.6 1.6 -9.80385
191 3 48 16 0 -11.3627
192 1 49.6 17.6 1.6 -11.796
193 2 0 19.2 0 -9.83844
194 2 1.6 20.8 1.6 -9.89167
195 2 3.2 19.2 0 -9.90647
196 2 4.8 20.8 1.6 -9.83755
197 1 6.4 19.2 0 -11.7017
198 3 8 20.8 1.6 -11.1939
199 1 9.6 19.2 0 -11.7443
200 2 11.2 20.8 1.6 -9.90648
201 3 12.8 19.2 0 -11.3493
202 1 14.4 20.8 1.6 -11.8062
203 3 16 19.2 0 -11.1824
204 2 17.6 20.8 1.6 -9.81242
205 1 19.2 19.2 0 -11.6788
206 2 20.8 20.8 1.6 -9.68394
207 1 22.4 19.2 0 -11.7252
208 2 24 20.8 1.6 -9.86025
209 2 25.6 19.2 0 -9.864
210 2 27.2 20.8 1.6 -9.87013
211 2 28.8 19.2 0 -9.78144
212 1 30.4 20.8 1.6 -11.7817
213 3 32 19.2 0 -11.2629
214 4 33.6 20.8 1.6 -13.3446
215 2 35.2 19.2 0 -9.92068
216 4 36.8 20.8 1.6 -13.43
217 3 38.4 19.2 0 -11.3034
218 1 40 20.8 1.6 -11.8273
219 3 41.6 19.2 0 -11.24
220 1 43.2 20.8 1.6 -11.8459
221 2 44.8 19.2 0 -9.83614
222 2 46.4 20.8 1.6 -9.86334
223 2 48 19.2 0 -9.78206
224 4 49.6 20.8 1.6 -13.3878
225 3 0 22.4 0 -11.3715
226 2 1.6 24 1.6 -9.93427
227 2 3.2 22.4 0 -9.90154
228 3 4.8 24 1.6 -11.3478
229 1 6.4 22.4 0 -11.8031
230 3 8 24 1.6 -11.3084
231 3 9.6 22.4 0 -11.3087
232 2 11.2 24 1.6 -9.87379
233 3 12.8 22.4 0 -11.3963
234 1 14.4 24 1.6 -11.7829
235 2 16 22.4 0 -9.88607
236 3 17.6 24 1.6 -11.2869
237 1 19.2 22.4 0 -11.7869
238 3 20.8 24 1.6 -11.2405
239 4 22.4 22.4 0 -13.3479
240 3 24 24 1.6 -11.3288
241 2 25.6 22.4 0 -9.94875
242 2 27.2 24 1.6 -9.9305
243 2 28.8 22.4 0 -9.83656
244 2 30.4 24 1.6 -9.83931
245 2 32 22.4 0 -9.80879
246 2 33.6 24 1.6 -9.91565
247 2 35.2 22.4 0 -9.90813
248 2 36.8 24 1.6 -9.91212
249 2 38.4 22.4 0 -9.91122
250 1 40 24 1.6 -11.7961
251 3 41.6 22.4 0 -11.2018
252 1 43.2 24 1.6 -11.7489
253 3 44.8 22.4 0 -11.2641
254 2 46.4 24 1.6 -9.8648
255 2 48 22.4 0 -9.90462
256 3 49.6 24 1.6 -11.4577
257 3 0 25.6 0 -11.3781
259 3 3.2 25.6 0 -11.3957
261 4 6.4 25.6 0 -13.3501
263 1 9.6 25.6 0 -11.8275
265 2 12.8 25.6 0 -9.86255
267 2 16 25.6 0 -9.87294
269 1 19.2 25.6 0 -11.8161
271 1 22.4 25.6 0 -11.8749
273 2 25.6 25.6 0 -9.86237
275 2 28.8 25.6 0 -9.815
277 3 32 25.6 0 -11.3411
279 2 35.2 25.6 0 -10.0022
281 2 38.4 25.6 0 -9.88989
283 2 41.6 25.6 0 -9.80576
285 2 44.8 25.6 0 -9.72089
287 2 48 25.6 0 -9.82744
258 1 1.6 27.2 1.6 -11.8256
289 2 0 28.8 0 -9.84054
260 2 4.8 27.2 1.6 -9.88169
291 2 3.2 28.8 0 -9.8389
262 3 8 27.2 1.6 -11.2595
293 1 6.4 28.8 0 -11.7616
264 2 11.2 27.2 1.6 -9.88261
295 2 9.6 28.8 0 -9.86471
266 1 14.4 27.2 1.6 -11.7693
297 2 12.8 28.8 0 -9.91251
268 2 17.6 27.2 1.6 -9.86393
299 2 16 28.8 0 -9.89305
270 3 20.8 27.2 1.6 -11.2384
301 1 19.2 28.8 0 -11.8165
272 3 24 27.2 1.6 -11.3323
303 4 22.4 28.8 0 -13.3812
305 2 25.6 28.8 0 -9.85587
274 2 27.2 27.2 1.6 -9.78553
307 2 28.8 28.8 0 -9.75693
276 1 30.4 27.2 1.6 -11.7177
309 2 32 28.8 0 -9.82043
278 2 33.6 27.2 1.6 -9.88597
311 2 35.2 28.8 0 -9.89455
280 3 36.8 27.2 1.6 -11.4128
313 1 38.4 28.8 0 -11.7959
282 2 40 27.2 1.6 -9.84546
315 2 41.6 28.8 0 -9.84148
284 1 43.2 27.2 1.6 -11.7392
317 3 44.8 28.8 0 -11.2202
286 1 46.4 27.2 1.6 -11.7696
319 2 48 28.8 0 -9.88247
288 2 49.6 27.2 1.6 -9.84088
290 2 1.6 30.4 1.6 -9.88498
321 1 0 32 0 -11.8042
292 2 4.8 30.4 1.6 -9.86842
323 1 3.2 32 0 -11.7491
294 3 8 30.4 1.6 -11.3486
325 4 6.4 32 0 -13.3118
296 2 11.2 30.4 1.6 -9.95116
327 1 9.6 32 0 -11.8393
298 3 14.4 30.4 1.6 -11.3295
329 1 12.8 32 0 -11.8424
300 3 17.6 30.4 1.6 -11.3244
331 1 16 32 0 -11.8667
302 3 20.8 30.4 1.6 -11.2013
333 1 19.2 32 0 -11.81
304 3 24 30.4 1.6 -11.231
335 1 22.4 32 0 -11.7483
337 1 25.6 32 0 -11.7385
306 2 27.2 30.4 1.6 -9.86964
339 2 28.8 32 0 -9.88617
308 2 30.4 30.4 1.6 -9.7973
341 2 32 32 0 -9.75417
310 1 33.6 30.4 1.6 -11.7776
343 2 35.2 32 0 -9.83801
312 2 36.8 30.4 1.6 -9.86628
345 1 38.4 32 0 -11.7406
314 2 40 30.4 1.6 -9.82849
347 2 41.6 32 0 -9.82957
316 1 43.2 30.4 1.6 -11.8003
349 4 44.8 32 0 -13.3616
318 2 46.4 30.4 1.6 -9.87364
351 2 48 32 0 -9.8499
320 2 49.6 30.4 1.6 -9.94611
322 3 1.6 33.6 1.6 -11.2698
353 1 0 35.2 0 -11.8413
324 2 4.8 33.6 1.6 -9.89354
355 1 3.2 35.2 0 -11.8139
326 3 8 33.6 1.6 -11.3964
357 2 6.4 35.2 0 -9.8367
328 3 11.2 33.6 1.6 -11.4119
359 4 9.6 35.2 0 -13.4516
330 2 14.4 33.6 1.6 -9.94532
361 2 12.8 35.2 0 -9.91889
332 3 17.6 33.6 1.6 -11.3436
363 2 16 35.2 0 -9.88988
334 2 20.8 33.6 1.6 -9.86423
365 2 19.2 35.2 0 -9.86683
336 2 24 33.6 1.6 -9.80524
367 2 22.4 35.2 0 -9.89239
369 2 25.6 35.2 0 -9.86968
338 2 27.2 33.6 1.6 -9.85928
371 2 28.8 35.2 0 -9.8736
340 2 30.4 33.6 1.6 -9.85097
373 2 32 35.2 0 -9.84832
342 4 33.6 33.6 1.6 -13.3455
375 3 35.2 35.2 0 -11.3328
344 2 36.8 33.6 1.6 -9.86825
377 1 38.4 35.2 0 -11.7691
346 2 40 33.6 1.6 -9.81427
379 1 41.6 35.2 0 -11.743
348 2 43.2 33.6 1.6 -9.75951
381 1 44.8 35.2 0 -11.7695
350 2 46.4 33.6 1.6 -9.90675
383 1 48 35.2 0 -11.8574
352 3 49.6 33.6 1.6 -11.3284
354 3 1.6 36.8 1.6 -11.2764
385 1 0 38.4 0 -11.8416
356 3 4.8 36.8 1.6 -11.326
387 1 3.2 38.4 0 -11.869
358 2 8 36.8 1.6 -9.94781
389 4 6.4 38.4 0 -13.412
360 2 11.2 36.8 1.6 -9.91707
391 1 9.6 38.4 0 -11.7829
362 1 14.4 36.8 1.6 -11.7924
393 2 12.8 38.4 0 -9.81426
364 1 17.6 36.8 1.6 -11.7755
395 3 16 38.4 0 -11.2032
366 1 20.8 36.8 1.6 -11.7942
397 3 19.2 38.4 0 -11.2045
368 2 24 36.8 1.6 -9.86477
399 3 22.4 38.4 0 -11.3005
401 3 25.6 38.4 0 -11.2641
370 1 27.2 36.8 1.6 -11.7658
403 3 28.8 38.4 0 -11.1549
372 1 30.4 36.8 1.6 -11.7761
405 2 32 38.4 0 -9.82331
374 4 33.6 36.8 1.6 -13.3449
407 2 35.2 38.4 0 -9.91974
376 2 36.8 36.8 1.6 -9.945
409 2 38.4 38.4 0 -9.88525
378 2 40 36.8 1.6 -9.83843
411 4 41.6 38.4 0 -13.38
380 3 43.2 36.8 1.6 -11.2314
413 1 44.8 38.4 0 -11.828
382 3 46.4 36.8 1.6 -11.2023
415 1 48 38.4 0 -11.8416
384 3 49.6 36.8 1.6 -11.2403
386 3 1.6 40 1.6 -11.3047
417 1 0 41.6 0 -11.8413
388 3 4.8 40 1.6 -11.4383
419 1 3.2 41.6 0 -11.8703
390 2 8 40 1.6 -9.92031
421 2 6.4 41.6 0 -9.87754
392 2 11.2 40 1.6 -9.87789
423 2 9.6 41.6 0 -9.87905
394 1 14.4 40 1.6 -11.7585
425 2 12.8 41.6 0 -9.78332
396 1 17.6 40 1.6 -11.8413
427 3 16 41.6 0 -11.1654
398 1 20.8 40 1.6 -11.8453
429 3 19.2 41.6 0 -11.2761
400 4 24 40 1.6 -13.3135
431 3 22.4 41.6 0 -11.3017
433 2 25.6 41.6 0 -9.86614
402 1 27.2 40 1.6 -11.7136
435 2 28.8 41.6 0 -9.87382
404 1 30.4 40 1.6 -11.7512
437 2 32 41.6 0 -9.82136
406 4 33.6 40 1.6 -13.3527
439 4 35.2 41.6 0 -13.3988
408 2 36.8 40 1.6 -9.92669
441 2 38.4 41.6 0 -9.8925
410 2 40 40 1.6 -9.90623
443 4 41.6 41.6 0 -13.3151
412 3 43.2 40 1.6 -11.2604
445 1 44.8 41.6 0 -11.7698
414 3 46.4 40 1.6 -11.2429
447 1 48 41.6 0 -11.8681
416 3 49.6 40 1.6 -11.2042
418 3 1.6 43.2 1.6 -11.3023
449 1 0 44.8 0 -11.8679
420 2 4.8 43.2 1.6 -9.90279
451 1 3.2 44.8 0 -11.8455
422 1 8 43.2 1.6 -11.8506
453 2 6.4 44.8 0 -9.93216
424 1 11.2 43.2 1.6 -11.8061
455 3 9.6 44.8 0 -11.3911
426 1 14.4 43.2 1.6 -11.7251
457 2 12.8 44.8 0 -9.83903
428 1 17.6 43.2 1.6 -11.8006
459 2 16 44.8 0 -9.83232
430 4 20.8 43.2 1.6 -13.4544
461 3 19.2 44.8 0 -11.3545
432 2 24 43.2 1.6 -9.90654
463 3 22.4 44.8 0 -11.3457
465 2 25.6 44.8 0 -9.88251
434 2 27.2 43.2 1.6 -9.87995
467 1 28.8 44.8 0 -11.8077
436 3 30.4 43.2 1.6 -11.2966
469 1 32 44.8 0 -11.7937
438 2 33.6 43.2 1.6 -9.90745
471 2 35.2 44.8 0 -9.84013
440 2 36.8 43.2 1.6 -9.88418
473 3 38.4 44.8 0 -11.3424
442 2 40 43.2 1.6 -9.86589
475 2 41.6 44.8 0 -9.91489
444 2 43.2 43.2 1.6 -9.81187
477 1 44.8 44.8 0 -11.8122
446 3 46.4 43.2 1.6 -11.271
479 2 48 44.8 0 -9.76978
448 3 49.6 43.2 1.6 -11.2707
450 3 1.6 46.4 1.6 -11.3021
481 1 0 48 0 -11.8412
452 2 4.8 46.4 1.6 -9.92121
483 1 3.2 48 0 -11.8459
454 2 8 46.4 1.6 -9.84703
485 2 6.4 48 0 -9.88918
456 1 11.2 46.4 1.6 -11.8072
487 2 9.6 48 0 -9.87971
458 4 14.4 46.4 1.6 -13.3392
489 2 12.8 48 0 -9.87425
460 4 17.6 46.4 1.6 -13.4161
491 3 16 48 0 -11.3328
462 2 20.8 46.4 1.6 -9.95765
493 2 19.2 48 0 -9.957
464 2 24 46.4 1.6 -9.95012
495 2 22.4 48 0 -9.90624
497 2 25.6 48 0 -9.87727
466 2 27.2 46.4 1.6 -9.87506
499 4 28.8 48 0 -13.4246
468 2 30.4 46.4 1.6 -9.88172
501 2 32 48 0 -9.88603
470 2 33.6 46.4 1.6 -9.85339
503 2 35.2 48 0 -9.86255
472 1 36.8 46.4 1.6 -11.7808
505 3 38.4 48 0 -11.2922
474 4 40 46.4 1.6 -13.3955
507 3 41.6 48 0 -11.381
476 3 43.2 46.4 1.6 -11.3168
509 1 44.8 48 0 -11.8027
478 3 46.4 46.4 1.6 -11.3083
511 1 48 48 0 -11.8681
480 3 49.6 46.4 1.6 -11.3081
482 3 1.6 49.6 1.6 -11.2746
484 2 4.8 49.6 1.6 -9.84369
486 1 8 49.6 1.6 -11.7656
488 4 11.2 49.6 1.6 -13.2607
490 2 14.4 49.6 1.6 -9.82614
492 2 17.6 49.6 1.6 -9.85124
494 3 20.8 49.6 1.6 -11.3545
496 3 24 49.6 1.6 -11.316
498 4 27.2 49.6 1.6 -13.4024
500 2 30.4 49.6 1.6 -9.91448
502 2 33.6 49.6 1.6 -9.87948
504 1 36.8 49.6 1.6 -11.7328
506 4 40 49.6 1.6 -13.3915
508 2 43.2 49.6 1.6 -9.87744
510 3 46.4 49.6 1.6 -11.2039
512 3 49.6 49.6 1.6 -11.2417
513 1 0 0 3.2 -11.7801
514 2 1.6 1.6 4.8 -9.80958
515 1 3.2 0 3.2 -11.7895
516 3 4.8 1.6 4.8 -11.2166
517 4 6.4 0 3.2 -13.303
518 2 8 1.6 4.8 -9.89538
519 2 9.6 0 3.2 -9.80732
520 2 11.2 1.6 4.8 -9.86297
521 1 12.8 0 3.2 -11.7277
522 3 14.4 1.6 4.8 -11.2268
523 1 16 0 3.2 -11.7543
524 3 17.6 1.6 4.8 -11.3314
525 1 19.2 0 3.2 -11.8516
526 3 20.8 1.6 4.8 -11.3389
527 1 22.4 0 3.2 -11.8428
528 3 24 1.6 4.8 -11.2379
529 4 25.6 0 3.2 -13.3316
530 2 27.2 1.6 4.8 -9.83886
531 2 28.8 0 3.2 -9.90019
532 2 30.4 1.6 4.8 -9.88802
533 2 32 0 3.2 -9.84555
534 2 33.6 1.6 4.8 -9.89381
535 1 35.2 0 3.2 -11.7521
536 2 36.8 1.6 4.8 -9.89732
537 2 38.4 0 3.2 -9.85297
538 2 40 1.6 4.8 -9.90642
539 2 41.6 0 3.2 -9.89587
540 3 43.2 1.6 4.8 -11.328
541 1 44.8 0 3.2 -11.8415
542 3 46.4 1.6 4.8 -11.271
543 1 48 0 3.2 -11.8122
544 2 49.6 1.6 4.8 -9.77556
545 1 0 3.2 3.2 -11.8142
546 3 1.6 4.8 4.8 -11.2935
547 1 3.2 3.2 3.2 -11.7567
548 2 4.8 4.8 4.8 -9.8385
549 1 6.4 3.2 3.2 -11.7705
550 2 8 4.8 4.8 -9.90992
551 2 9.6 3.2 3.2 -9.89938
552 2 11.2 4.8 4.8 -9.93326
553 2 12.8 3.2 3.2 -9.8544
554 2 14.4 4.8 4.8 -9.90536
555 2 16 3.2 3.2 -9.91403
556 2 17.6 4.8 4.8 -9.89509
557 3 19.2 3.2 3.2 -11.3613
558 3 20.8 4.8 4.8 -11.4198
559 1 22.4 3.2 3.2 -11.8471
560 3 24 4.8 4.8 -11.2005
561 1 25.6 3.2 3.2 -11.723
562 2 27.2 4.8 4.8 -9.75107
563 1 28.8 3.2 3.2 -11.7522
564 2 30.4 4.8 4.8 -9.86748
565 4 32 3.2 3.2 -13.3959
566 2 33.6 4.8 4.8 -9.91427
567 2 35.2 3.2 3.2 -9.87017
568 2 36.8 4.8 4.8 -9.86283
569 2 38.4 3.2 3.2 -9.91552
570 3 40 4.8 4.8 -11.2821
571 2 41.6 3.2 3.2 -9.90957
572 2 43.2 4.8 4.8 -9.8826
573 2 44.8 3.2 3.2 -9.86659
574 3 46.4 4.8 4.8 -11.29
575 1 48 3.2 3.2 -11.8372
576 3 49.6 4.8 4.8 -11.2988
577 1 0 6.4 3.2 -11.8677
578 3 1.6 8 4.8 -11.2745
579 1 3.2 6.4 3.2 -11.8013
580 3 4.8 8 4.8 -11.3008
581 4 6.4 6.4 3.2 -13.3424
582 2 8 8 4.8 -9.94849
583 2 9.6 6.4 3.2 -9.88707
584 2 11.2 8 4.8 -9.86161
585 3 12.8 6.4 3.2 -11.2848
586 1 14.4 8 4.8 -11.8113
587 3 16 6.4 3.2 -11.2664
588 1 17.6 8 4.8 -11.7783
589 2 19.2 6.4 3.2 -9.92124
590 3 20.8 8 4.8 -11.322
591 1 22.4 6.4 3.2 -11.8363
592 3 24 8 4.8 -11.34
593 1 25.6 6.4 3.2 -11.7867
594 3 27.2 8 4.8 -11.2219
595 1 28.8 6.4 3.2 -11.7782
596 2 30.4 8 4.8 -9.90946
597 2 32 6.4 3.2 -9.92257
598 2 33.6 8 4.8 -9.89394
599 2 35.2 6.4 3.2 -9.91734
600 2 36.8 8 4.8 -9.89244
601 2 38.4 6.4 3.2 -9.90002
602 2 40 8 4.8 -9.89248
603 2 41.6 6.4 3.2 -9.8953
604 3 43.2 8 4.8 -11.3115
605 3 44.8 6.4 3.2 -11.3971
606 2 46.4 8 4.8 -9.84976
607 1 48 6.4 3.2 -11.8533
608 3 49.6 8 4.8 -11.2326
609 1 0 9.6 3.2 -11.7869
610 3 1.6 11.2 4.8 -11.3301
611 1 3.2 9.6 3.2 -11.8142
612 3 4.8 11.2 4.8 -11.2615
613 2 6.4 9.6 3.2 -9.8393
614 2 8 11.2 4.8 -9.87803
615 3 9.6 9.6 3.2 -11.3501
616 1 11.2 11.2 4.8 -11.8339
617 2 12.8 9.6 3.2 -9.8113
618 1 14.4 11.2 4.8 -11.7084
619 3 16 9.6 3.2 -11.1254
620 1 17.6 11.2 4.8 -11.811
621 2 19.2 9.6 3.2 -9.89219
622 3 20.8 11.2 4.8 -11.3749
623 1 22.4 9.6 3.2 -11.824
624 3 24 11.2 4.8 -11.3271
625 4 25.6 9.6 3.2 -13.4185
626 2 27.2 11.2 4.8 -9.85764
627 2 28.8 9.6 3.2 -9.87251
628 2 30.4 11.2 4.8 -9.84509
629 2 32 9.6 3.2 -9.94581
630 1 33.6 11.2 4.8 -11.7737
631 3 35.2 9.6 3.2 -11.3413
632 4 36.8 11.2 4.8 -13.3502
633 2 38.4 9.6 3.2 -9.93269
634 2 40 11.2 4.8 -9.85864
635 4 41.6 9.6 3.2 -13.3727
636 2 43.2 11.2 4.8 -9.86491
637 2 44.8 9.6 3.2 -9.88565
638 3 46.4 11.2 4.8 -11.2714
639 1 48 9.6 3.2 -11.8189
640 2 49.6 11.2 4.8 -9.86002
641 2 0 12.8 3.2 -9.86935
642 3 1.6 14.4 4.8 -11.3387
643 2 3.2 12.8 3.2 -9.84708
644 2 4.8 14.4 4.8 -9.88672
645 4 6.4 12.8 3.2 -13.4056
646 3 8 14.4 4.8 -11.3524
647 2 9.6 12.8 3.2 -9.94741
648 4 11.2 14.4 4.8 -13.3835
649 2 12.8 12.8 3.2 -9.81415
650 4 14.4 14.4 4.8 -13.3112
651 2 16 12.8 3.2 -9.75109
652 2 17.6 14.4 4.8 -9.88531
653 3 19.2 12.8 3.2 -11.3404
654 2 20.8 14.4 4.8 -9.94844
655 1 22.4 12.8 3.2 -11.769
656 3 24 14.4 4.8 -11.3706
657 3 25.6 12.8 3.2 -11.3748
658 2 27.2 14.4 4.8 -9.91096
659 3 28.8 12.8 3.2 -11.3224
660 2 30.4 14.4 4.8 -9.89274
661 3 32 12.8 3.2 -11.2998
662 1 33.6 14.4 4.8 -11.7859
663 3 35.2 12.8 3.2 -11.2392
664 1 36.8 14.4 4.8 -11.7718
665 2 38.4 12.8 3.2 -9.86911
666 1 40 14.4 4.8 -11.7886
667 2 41.6 12.8 3.2 -9.8417
668 1 43.2 14.4 4.8 -11.7287
669 2 44.8 12.8 3.2 -9.79701
670 1 46.4 14.4 4.8 -11.7471
671 2 48 12.8 3.2 -9.88297
672 2 49.6 14.4 4.8 -9.90371
673 4 0 16 3.2 -13.4147
674 2 1.6 17.6 4.8 -9.86283
675 2 3.2 16 3.2 -9.91895
676 2 4.8 17.6 4.8 -9.83838
677 4 6.4 16 3.2 -13.3178
678 3 8 17.6 4.8 -11.1993
679 4 9.6 16 3.2 -13.3155
680 2 11.2 17.6 4.8 -9.83111
681 2 12.8 16 3.2 -9.8657
682 4 14.4 17.6 4.8 -13.3667
683 2 16 16 3.2 -9.81413
684 2 17.6 17.6 4.8 -9.90195
685 2 19.2 16 3.2 -9.93889
686 3 20.8 17.6 4.8 -11.3201
687 4 22.4 16 3.2 -13.383
688 3 24 17.6 4.8 -11.3874
689 3 25.6 16 3.2 -11.405
690 2 27.2 17.6 4.8 -9.90703
691 2 28.8 16 3.2 -9.90271
692 2 30.4 17.6 4.8 -9.91627
693 3 32 16 3.2 -11.3603
694 4 33.6 17.6 4.8 -13.3379
695 3 35.2 16 3.2 -11.3335
696 1 36.8 17.6 4.8 -11.8173
697 3 38.4 16 3.2 -11.3359
698 1 40 17.6 4.8 -11.8111
699 3 41.6 16 3.2 -11.271
700 1 43.2 17.6 4.8 -11.7529
701 2 44.8 16 3.2 -9.74802
702 1 46.4 17.6 4.8 -11.7186
703 3 48 16 3.2 -11.2552
704 2 49.6 17.6 4.8 -9.80723
705 2 0 19.2 3.2 -9.85562
706 2 1.6 20.8 4.8 -9.84156
707 2 3.2 19.2 3.2 -9.85073
708 3 4.8 20.8 4.8 -11.2016
709 1 6.4 19.2 3.2 -11.7767
710 3 8 20.8 4.8 -11.2051
711 1 9.6 19.2 3.2 -11.763
712 2 11.2 20.8 4.8 -9.83166
713 3 12.8 19.2 3.2 -11.3255
714 2 14.4 20.8 4.8 -9.86472
715 4 16 19.2 3.2 -13.3675
716 3 17.6 20.8 4.8 -11.2302
717 1 19.2 19.2 3.2 -11.7409
718 3 20.8 20.8 4.8 -11.167
719 1 22.4 19.2 3.2 -11.765
720 3 24 20.8 4.8 -11.2715
721 2 25.6 19.2 3.2 -9.88125
722 2 27.2 20.8 4.8 -9.9097
723 2 28.8 19.2 3.2 -9.86228
724 2 30.4 20.8 4.8 -9.88533
725 3 32 19.2 3.2 -11.3551
726 1 33.6 20.8 4.8 -11.7912
727 3 35.2 19.2 3.2 -11.3311
728 1 36.8 20.8 4.8 -11.7706
729 3 38.4 19.2 3.2 -11.2705
730 1 40 20.8 4.8 -11.8018
731 3 41.6 19.2 3.2 -11.2759
732 4 43.2 20.8 4.8 -13.332
733 2 44.8 19.2 3.2 -9.81492
734 4 46.4 20.8 4.8 -13.3813
735 2 48 19.2 3.2 -9.89736
736 2 49.6 20.8 4.8 -9.9038
737 2 0 22.4 3.2 -9.9332
738 2 1.6 24 4.8 -9.88866
739 1 3.2 22.4 3.2 -11.8248
740 3 4.8 24 4.8 -11.3057
741 1 6.4 22.4 3.2 -11.8112
742 3 8 24 4.8 -11.2023
743 1 9.6 22.4 3.2 -11.8013
744 2 11.2 24 4.8 -9.79019
745 2 12.8 22.4 3.2 -9.86441
746 2 14.4 24 4.8 -9.81236
747 2 16 22.4 3.2 -9.83073
748 3 17.6 24 4.8 -11.3324
749 1 19.2 22.4 3.2 -11.8092
750 3 20.8 24 4.8 -11.2402
751 1 22.4 22.4 3.2 -11.8136
752 3 24 24 4.8 -11.2767
753 4 25.6 22.4 3.2 -13.4102
754 3 27.2 24 4.8 -11.293
755 2 28.8 22.4 3.2 -9.90994
756 2 30.4 24 4.8 -9.9032
757 2 32 22.4 3.2 -9.89549
758 1 33.6 24 4.8 -11.7627
759 3 35.2 22.4 3.2 -11.3225
760 1 36.8 24 4.8 -11.7552
761 3 38.4 22.4 3.2 -11.2316
762 1 40 24 4.8 -11.7252
763 3 41.6 22.4 3.2 -11.2016
764 1 43.2 24 4.8 -11.8034
765 3 44.8 22.4 3.2 -11.3831
766 2 46.4 24 4.8 -9.89423
767 2 48 22.4 3.2 -9.96577
768 3 49.6 24 4.8 -11.4064
769 2 0 25.6 3.2 -9.92619
771 2 3.2 25.6 3.2 -9.89183
773 1 6.4 25.6 3.2 -11.8274
775 1 9.6 25.6 3.2 -11.7795
777 2 12.8 25.6 3.2 -9.81263
779 2 16 25.6 3.2 -9.84525
781 1 19.2 25.6 3.2 -11.8288
783 1 22.4 25.6 3.2 -11.8411
785 1 25.6 25.6 3.2 -11.8455
787 4 28.8 25.6 3.2 -13.2931
789 2 32 25.6 3.2 -9.89339
791 3 35.2 25.6 3.2 -11.3681
793 2 38.4 25.6 3.2 -9.82475
795 2 41.6 25.6 3.2 -9.75477
797 2 44.8 25.6 3.2 -9.81579
799 4 48 25.6 3.2 -13.4144
770 2 1.6 27.2 4.8 -9.86512
801 2 0 28.8 3.2 -9.89769
772 3 4.8 27.2 4.8 -11.2948
803 2 3.2 28.8 3.2 -9.88922
774 2 8 27.2 4.8 -9.83645
805 1 6.4 28.8 3.2 -11.8009
776 2 11.2 27.2 4.8 -9.86318
807 2 9.6 28.8 3.2 -9.89313
778 2 14.4 27.2 4.8 -9.81207
809 2 12.8 28.8 3.2 -9.91247
780 2 17.6 27.2 4.8 -9.84394
811 2 16 28.8 3.2 -9.89832
782 3 20.8 27.2 4.8 -11.2029
813 1 19.2 28.8 3.2 -11.7868
784 3 24 27.2 4.8 -11.2423
815 1 22.4 28.8 3.2 -11.8556
817 1 25.6 28.8 3.2 -11.8136
786 3 27.2 27.2 4.8 -11.204
819 1 28.8 28.8 3.2 -11.7245
788 2 30.4 27.2 4.8 -9.76007
821 2 32 28.8 3.2 -9.79933
790 1 33.6 27.2 4.8 -11.7632
823 3 35.2 28.8 3.2 -11.3142
792 1 36.8 27.2 4.8 -11.7397
825 2 38.4 28.8 3.2 -9.83275
794 1 40 27.2 4.8 -11.7456
827 3 41.6 28.8 3.2 -11.2242
796 4 43.2 27.2 4.8 -13.3241
829 3 44.8 28.8 3.2 -11.2954
798 2 46.4 27.2 4.8 -9.87981
831 2 48 28.8 3.2 -9.91067
800 4 49.6 27.2 4.8 -13.4011
802 3 1.6 30.4 4.8 -11.3816
833 4 0 32 3.2 -13.3948
804 3 4.8 30.4 4.8 -11.3875
835 2 3.2 32 3.2 -9.8406
806 2 8 30.4 4.8 -9.86635
837 4 6.4 32 3.2 -13.3996
808 4 11.2 30.4 4.8 -13.333
839 2 9.6 32 3.2 -9.88756
810 1 14.4 30.4 4.8 -11.7837
841 2 12.8 32 3.2 -9.8773
812 2 17.6 30.4 4.8 -9.80692
843 2 16 32 3.2 -9.90061
814 3 20.8 30.4 4.8 -11.1663
845 1 19.2 32 3.2 -11.8152
816 3 24 30.4 4.8 -11.1651
847 1 22.4 32 3.2 -11.7873
849 1 25.6 32 3.2 -11.7623
818 3 27.2 30.4 4.8 -11.2664
851 2 28.8 32 3.2 -9.88542
820 2 30.4 30.4 4.8 -9.84319
853 2 32 32 3.2 -9.83718
822 1 33.6 30.4 4.8 -11.7356
855 3 35.2 32 3.2 -11.261
824 1 36.8 30.4 4.8 -11.7176
857 2 38.4 32 3.2 -9.84141
826 1 40 30.4 4.8 -11.7364
859 2 41.6 32 3.2 -9.84077
828 1 43.2 30.4 4.8 -11.7657
861 2 44.8 32 3.2 -9.85506
830 4 46.4 30.4 4.8 -13.4184
863 2 48 32 3.2 -9.93817
832 2 49.6 30.4 4.8 -9.90957
834 3 1.6 33.6 4.8 -11.2646
865 1 0 35.2 3.2 -11.8129
836 3 4.8 33.6 4.8 -11.2487
867 1 3.2 35.2 3.2 -11.8454
838 1 8 33.6 4.8 -11.775
869 4 6.4 35.2 3.2 -13.4158
840 1 11.2 33.6 4.8 -11.8263
871 3 9.6 35.2 3.2 -11.4406
842 4 14.4 33.6 4.8 -13.3863
873 3 12.8 35.2 3.2 -11.398
844 2 17.6 33.6 4.8 -9.91614
875 2 16 35.2 3.2 -9.90758
846 3 20.8 33.6 4.8 -11.2559
877 2 19.2 35.2 3.2 -9.8769
848 2 24 33.6 4.8 -9.75182
879 2 22.4 35.2 3.2 -9.86992
881 2 25.6 35.2 3.2 -9.85347
850 2 27.2 33.6 4.8 -9.8876
883 2 28.8 35.2 3.2 -9.86395
852 4 30.4 33.6 4.8 -13.376
885 3 32 35.2 3.2 -11.2625
854 1 33.6 33.6 4.8 -11.752
887 2 35.2 35.2 3.2 -9.90837
856 1 36.8 33.6 4.8 -11.8216
889 2 38.4 35.2 3.2 -9.8162
858 2 40 33.6 4.8 -9.76903
891 1 41.6 35.2 3.2 -11.7141
860 2 43.2 33.6 4.8 -9.83954
893 1 44.8 35.2 3.2 -11.7744
862 3 46.4 33.6 4.8 -11.3765
895 4 48 35.2 3.2 -13.3525
864 2 49.6 33.6 4.8 -9.88369
866 3 1.6 36.8 4.8 -11.2962
897 1 0 38.4 3.2 -11.8015
868 2 4.8 36.8 4.8 -9.93579
899 4 3.2 38.4 3.2 -13.4233
870 2 8 36.8 4.8 -9.84463
901 4 6.4 38.4 3.2 -13.4528
872 4 11.2 36.8 4.8 -13.4396
903 3 9.6 38.4 3.2 -11.4023
874 4 14.4 36.8 4.8 -13.3686
905 2 12.8 38.4 3.2 -9.8854
876 1 17.6 36.8 4.8 -11.8046
907 3 16 38.4 3.2 -11.2032
878 2 20.8 36.8 4.8 -9.85532
909 3 19.2 38.4 3.2 -11.2664
880 2 24 36.8 4.8 -9.80831
911 2 22.4 38.4 3.2 -9.84687
913 2 25.6 38.4 3.2 -9.8118
882 2 27.2 36.8 4.8 -9.80332
915 2 28.8 38.4 3.2 -9.69144
884 1 30.4 36.8 4.8 -11.7906
917 3 32 38.4 3.2 -11.1968
886 1 33.6 36.8 4.8 -11.857
919 3 35.2 38.4 3.2 -11.3493
888 4 36.8 36.8 4.8 -13.3517
921 2 38.4 38.4 3.2 -9.90642
890 1 40 36.8 4.8 -11.7535
923 2 41.6 38.4 3.2 -9.78639
892 2 43.2 36.8 4.8 -9.83871
925 1 44.8 38.4 3.2 -11.8181
894 2 46.4 36.8 4.8 -9.90692
927 1 48 38.4 3.2 -11.8039
896 2 49.6 36.8 4.8 -9.84109
898 2 1.6 40 4.8 -9.92113
929 1 0 41.6 3.2 -11.7884
900 3 4.8 40 4.8 -11.3565
931 2 3.2 41.6 3.2 -9.90185
902 4 8 40 4.8 -13.4535
933 2 6.4 41.6 3.2 -9.92117
904 2 11.2 40 4.8 -9.8413
935 3 9.6 41.6 3.2 -11.378
906 1 14.4 40 4.8 -11.7916
937 2 12.8 41.6 3.2 -9.84041
908 1 17.6 40 4.8 -11.8281
939 3 16 41.6 3.2 -11.2369
910 2 20.8 40 4.8 -9.83641
941 3 19.2 41.6 3.2 -11.355
912 1 24 40 4.8 -11.6752
943 2 22.4 41.6 3.2 -9.90574
945 2 25.6 41.6 3.2 -9.78014
914 1 27.2 40 4.8 -11.6646
947 2 28.8 41.6 3.2 -9.75096
916 1 30.4 40 4.8 -11.7194
949 2 32 41.6 3.2 -9.83773
918 1 33.6 40 4.8 -11.8034
951 2 35.2 41.6 3.2 -9.86616
920 4 36.8 40 4.8 -13.3191
953 2 38.4 41.6 3.2 -9.83023
922 1 40 40 4.8 -11.691
955 4 41.6 41.6 3.2 -13.2585
924 2 43.2 40 4.8 -9.8645
957 1 44.8 41.6 3.2 -11.8013
926 3 46.4 40 4.8 -11.3466
959 1 48 41.6 3.2 -11.8133
928 2 49.6 40 4.8 -9.85536
930 2 1.6 43.2 4.8 -9.85437
961 1 0 44.8 3.2 -11.8176
932 1 4.8 43.2 4.8 -11.8312
963 2 3.2 44.8 3.2 -9.86715
934 1 8 43.2 4.8 -11.8401
965 3 6.4 44.8 3.2 -11.2925
936 4 11.2 43.2 4.8 -13.4266
967 3 9.6 44.8 3.2 -11.3392
938 4 14.4 43.2 4.8 -13.3225
969 3 12.8 44.8 3.2 -11.2229
940 4 17.6 43.2 4.8 -13.3913
971 2 16 44.8 3.2 -9.84237
942 3 20.8 43.2 4.8 -11.3892
973 2 19.2 44.8 3.2 -9.91612
944 2 24 43.2 4.8 -9.88313
975 2 22.4 44.8 3.2 -9.93844
977 2 25.6 44.8 3.2 -9.90164
946 1 27.2 43.2 4.8 -11.7502
979 2 28.8 44.8 3.2 -9.8342
948 1 30.4 43.2 4.8 -11.7925
981 2 32 44.8 3.2 -9.83488
950 4 33.6 43.2 4.8 -13.2698
983 2 35.2 44.8 3.2 -9.87095
952 4 36.8 43.2 4.8 -13.3115
985 2 38.4 44.8 3.2 -9.84755
954 1 40 43.2 4.8 -11.6667
987 4 41.6 44.8 3.2 -13.3174
956 2 43.2 43.2 4.8 -9.81638
989 1 44.8 44.8 3.2 -11.7969
958 3 46.4 43.2 4.8 -11.295
991 1 48 44.8 3.2 -11.8687
960 2 49.6 43.2 4.8 -9.87877
962 2 1.6 46.4 4.8 -9.88745
993 1 0 48 3.2 -11.8705
964 1 4.8 46.4 4.8 -11.81
995 2 3.2 48 3.2 -9.84551
966 1 8 46.4 4.8 -11.8345
997 2 6.4 48 3.2 -9.89633
968 4 11.2 46.4 4.8 -13.3196
999 2 9.6 48 3.2 -9.84992
970 4 14.4 46.4 4.8 -13.3684
1001 2 12.8 48 3.2 -9.84216
972 2 17.6 46.4 4.8 -9.90182
1003 2 16 48 3.2 -9.92051
974 3 20.8 46.4 4.8 -11.3813
1005 2 19.2 48 3.2 -9.9113
976 2 24 46.4 4.8 -9.88914
1007 4 22.4 48 3.2 -13.4416
1009 2 25.6 48 3.2 -9.92045
978 1 27.2 46.4 4.8 -11.7896
1011 3 28.8 48 3.2 -11.3389
980 1 30.4 46.4 4.8 -11.8005
1013 2 32 48 3.2 -9.9297
982 1 33.6 46.4 4.8 -11.7841
1015 2 35.2 48 3.2 -9.82117
984 2 36.8 46.4 4.8 -9.78863
1017 2 38.4 48 3.2 -9.867
986 4 40 46.4 4.8 -13.3603
1019 2 41.6 48 3.2 -9.92196
988 3 43.2 46.4 4.8 -11.3518
1021 1 44.8 48 3.2 -11.8547
990 3 46.4 46.4 4.8 -11.3092
1023 1 48 48 3.2 -11.841
992 3 49.6 46.4 4.8 -11.3277
994 3 1.6 49.6 4.8 -11.3223
996 2 4.8 49.6 4.8 -9.90587
998 2 8 49.6 4.8 -9.83169
1000 2 11.2 49.6 4.8 -9.81117
1002 2 14.4 49.6 4.8 -9.85913
1004 3 17.6 49.6 4.8 -11.354
1006 3 20.8 49.6 4.8 -11.3312
1008 2 24 49.6 4.8 -9.8882
1010 2 27.2 49.6 4.8 -9.87814
1012 4 30.4 49.6 4.8 -13.4256
1014 2 33.6 49.6 4.8 -9.8758
1016 2 36.8 49.6 4.8 -9.85886
1018 2 40 49.6 4.8 -9.90508
1020 3 43.2 49.6 4.8 -11.3543
1022 3 46.4 49.6 4.8 -11.2764
1024 3 49.6 49.6 4.8 -11.2713
1025 1 0 0 6.4 -11.8315
1026 2 1.6 1.6 8 -9.91257
1027 4 3.2 0 6.4 -13.3727
1028 2 4.8 1.6 8 -9.93218
1029 4 6.4 0 6.4 -13.3906
1030 2 8 1.6 8 -9.87595
1031 1 9.6 0 6.4 -11.7863
1032 3 11.2 1.6 8 -11.2713
1033 1 12.8 0 6.4 -11.7561
1034 3 14.4 1.6 8 -11.2767
1035 1 16 0 6.4 -11.8414
1036 3 17.6 1.6 8 -11.2397
1037 1 19.2 0 6.4 -11.855
1038 3 20.8 1.6 8 -11.2423
1039 1 22.4 0 6.4 -11.8276
1040 3 24 1.6 8 -11.2367
1041 4 25.6 0 6.4 -13.3774
1042 2 27.2 1.6 8 -9.8888
1043 2 28.8 0 6.4 -9.92314
1044 2 30.4 1.6 8 -9.90939
1045 4 32 0 6.4 -13.4272
1046 2 33.6 1.6 8 -9.94987
1047 2 35.2 0 6.4 -9.88134
1048 3 36.8 1.6 8 -11.351
1049 4 38.4 0 6.4 -13.3258
1050 3 40 1.6 8 -11.2034
1051 1 41.6 0 6.4 -11.8039
1052 3 43.2 1.6 8 -11.233
1053 1 44.8 0 6.4 -11.8564
1054 3 46.4 1.6 8 -11.3566
1055 1 48 0 6.4 -11.8366
1056 3 49.6 1.6 8 -11.352
1057 2 0 3.2 6.4 -9.80143
1058 2 1.6 4.8 8 -9.81572
1059 4 3.2 3.2 6.4 -13.3765
1060 2 4.8 4.8 8 -9.87239
1061 2 6.4 3.2 6.4 -9.85394
1062 2 8 4.8 8 -9.9309
1063 2 9.6 3.2 6.4 -9.83983
1064 3 11.2 4.8 8 -11.4359
1065 1 12.8 3.2 6.4 -11.8603
1066 3 14.4 4.8 8 -11.3746
1067 1 16 3.2 6.4 -11.8325
1068 2 17.6 4.8 8 -9.88561
1069 1 19.2 3.2 6.4 -11.8523
1070 3 20.8 4.8 8 -11.3514
1071 1 22.4 3.2 6.4 -11.8406
1072 3 24 4.8 8 -11.34
1073 1 25.6 3.2 6.4 -11.8192
1074 3 27.2 4.8 8 -11.2989
1075 2 28.8 3.2 6.4 -9.83574
1076 3 30.4 4.8 8 -11.389
1077 2 32 3.2 6.4 -9.8618
1078 3 33.6 4.8 8 -11.2593
1079 4 35.2 3.2 6.4 -13.4014
1080 3 36.8 4.8 8 -11.2336
1081 1 38.4 3.2 6.4 -11.8198
1082 3 40 4.8 8 -11.2405
1083 1 41.6 3.2 6.4 -11.7841
1084 2 43.2 4.8 8 -9.77573
1085 1 44.8 3.2 6.4 -11.7957
1086 2 46.4 4.8 8 -9.832
1087 1 48 3.2 6.4 -11.8159
1088 2 49.6 4.8 8 -9.90234
1089 2 0 6.4 6.4 -9.79556
1090 2 1.6 8 8 -9.84589
1091 1 3.2 6.4 6.4 -11.8021
1092 3 4.8 8 8 -11.3456
1093 2 6.4 6.4 6.4 -9.87157
1094 3 8 8 8 -11.4099
1095 4 9.6 6.4 6.4 -13.5196
1096 2 11.2 8 8 -9.9279
1097 3 12.8 6.4 6.4 -11.374
1098 1 14.4 8 8 -11.773
1099 2 16 6.4 6.4 -9.85822
1100 1 17.6 8 8 -11.7994
1101 2 19.2 6.4 6.4 -9.86664
1102 4 20.8 8 8 -13.4717
1103 1 22.4 6.4 6.4 -11.8707
1104 3 24 8 8 -11.3459