ITEM: TIMESTEP
0
ITEM: NUMBER OF ATOMS
8192
ITEM: BOX BOUNDS pp pp pp
0.0000000000000000e+00 5.1200000000000003e+01
0.0000000000000000e+00 5.1200000000000003e+01
0.0000000000000000e+00 5.1200000000000003e+01
ITEM: ATOMS id type x y z c_eng
1 4 0 0 0 -13.3756
2 4 1.6 1.6 1.6 -13.3509
3 2 3.2 0 0 -9.86485
4 2 4.8 1.6 1.6 -9.85037
5 3 6.4 0 0 -11.4552
6 4 8 1.6 1.6 -13.5156
7 2 9.6 0 0 -9.88768
8 3 11.2 1.6 1.6 -11.2971
9 1 12.8 0 0 -11.8109
10 2 14.4 1.6 1.6 -9.90201
11 2 16 0 0 -9.87913
12 2 17.6 1.6 1.6 -9.89879
13 2 19.2 0 0 -9.8776
14 2 20.8 1.6 1.6 -9.84034
15 4 22.4 0 0 -13.3384
16 3 24 1.6 1.6 -11.2605
17 2 25.6 0 0 -9.89002
18 2 27.2 1.6 1.6 -9.85546
19 2 28.8 0 0 -9.85734
20 2 30.4 1.6 1.6 -9.88712
21 2 32 0 0 -9.87041
22 2 33.6 1.6 1.6 -9.88479
23 2 35.2 0 0 -9.93128
24 2 36.8 1.6 1.6 -9.87788
25 3 38.4 0 0 -11.3979
26 2 40 1.6 1.6 -9.96481
27 2 41.6 0 0 -9.96415
28 2 43.2 1.6 1.6 -9.88902
29 1 44.8 0 0 -11.7904
30 2 46.4 1.6 1.6 -9.86679
31 1 48 0 0 -11.7142
32 2 49.6 1.6 1.6 -9.81435
33 3 0 3.2 0 -11.3522
34 2 1.6 4.8 1.6 -9.89686
35 2 3.2 3.2 0 -9.83682
36 1 4.8 4.8 1.6 -11.7296
37 2 6.4 3.2 0 -9.84543
38 4 8 4.8 1.6 -13.3959
39 2 9.6 3.2 0 -9.92633
40 4 11.2 4.8 1.6 -13.4876
41 2 12.8 3.2 0 -9.90579
42 4 14.4 4.8 1.6 -13.3511
43 3 16 3.2 0 -11.3419
44 1 17.6 4.8 1.6 -11.8352
45 2 19.2 3.2 0 -9.90868
46 2 20.8 4.8 1.6 -9.84927
47 1 22.4 3.2 0 -11.7632
48 3 24 4.8 1.6 -11.2398
49 1 25.6 3.2 0 -11.8066
50 3 27.2 4.8 1.6 -11.1948
51 1 28.8 3.2 0 -11.7171
52 2 30.4 4.8 1.6 -9.86406
53 2 32 3.2 0 -9.89725
54 4 33.6 4.8 1.6 -13.4161
55 2 35.2 3.2 0 -9.88782
56 2 36.8 4.8 1.6 -9.88989
57 4 38.4 3.2 0 -13.3905
58 2 40 4.8 1.6 -9.89317
59 2 41.6 3.2 0 -9.89345
60 4 43.2 4.8 1.6 -13.4184
61 2 44.8 3.2 0 -9.92649
62 2 46.4 4.8 1.6 -9.95017
63 2 48 3.2 0 -9.90872
64 3 49.6 4.8 1.6 -11.3244
65 3 0 6.4 0 -11.4034
66 3 1.6 8 1.6 -11.3802
67 4 3.2 6.4 0 -13.4137
68 2 4.8 8 1.6 -9.86453
69 3 6.4 6.4 0 -11.2443
70 2 8 8 1.6 -9.8999
71 3 9.6 6.4 0 -11.3895
72 1 11.2 8 1.6 -11.8822
73 3 12.8 6.4 0 -11.3063
74 1 14.4 8 1.6 -11.8274
75 3 16 6.4 0 -11.2405
76 1 17.6 8 1.6 -11.8612
77 3 19.2 6.4 0 -11.405
78 3 20.8 8 1.6 -11.4509
79 1 22.4 6.4 0 -11.8434
80 3 24 8 1.6 -11.2345
81 4 25.6 6.4 0 -13.3567
82 2 27.2 8 1.6 -9.88958
83 2 28.8 6.4 0 -9.84356
84 2 30.4 8 1.6 -9.90161
85 2 32 6.4 0 -9.97506
86 4 33.6 8 1.6 -13.416
87 3 35.2 6.4 0 -11.4388
88 4 36.8 8 1.6 -13.439
89 2 38.4 6.4 0 -9.90446
90 1 40 8 1.6 -11.7649
91 2 41.6 6.4 0 -9.85912
92 4 43.2 8 1.6 -13.311
93 2 44.8 6.4 0 -9.91271
94 3 46.4 8 1.6 -11.3375
95 2 48 6.4 0 -9.89769
96 2 49.6 8 1.6 -9.84707
97 4 0 9.6 0 -13.3415
98 2 1.6 11.2 1.6 -9.88486
99 2 3.2 9.6 0 -9.87345
100 2 4.8 11.2 1.6 -9.85143
101 2 6.4 9.6 0 -9.90546
102 2 8 11.2 1.6 -9.87345
103 3 9.6 9.6 0 -11.3501
104 1 11.2 11.2 1.6 -11.8729
105 3 12.8 9.6 0 -11.3656
106 1 14.4 11.2 1.6 -11.8257
107 3 16 9.6 0 -11.2712
108 1 17.6 11.2 1.6 -11.8042
109 3 19.2 9.6 0 -11.4435
110 3 20.8 11.2 1.6 -11.395
111 1 22.4 9.6 0 -11.8195
112 2 24 11.2 1.6 -9.83473
113 2 25.6 9.6 0 -9.85104
114 4 27.2 11.2 1.6 -13.3908
115 2 28.8 9.6 0 -9.86258
116 1 30.4 11.2 1.6 -11.8303
117 3 32 9.6 0 -11.3321
118 1 33.6 11.2 1.6 -11.8284
119 3 35.2 9.6 0 -11.3578
120 2 36.8 11.2 1.6 -9.84963
121 2 38.4 9.6 0 -9.84687
122 2 40 11.2 1.6 -9.82201
123 4 41.6 9.6 0 -13.2499
124 1 43.2 11.2 1.6 -11.7721
125 2 44.8 9.6 0 -9.85652
126 2 46.4 11.2 1.6 -9.86638
127 1 48 9.6 0 -11.7762
128 4 49.6 11.2 1.6 -13.2164
129 2 0 12.8 0 -9.86499
130 2 1.6 14.4 1.6 -9.89115
131 3 3.2 12.8 0 -11.3246
132 2 4.8 14.4 1.6 -9.86219
133 4 6.4 12.8 0 -13.4051
134 4 8 14.4 1.6 -13.377
135 2 9.6 12.8 0 -9.90622
136 1 11.2 14.4 1.6 -11.8232
137 3 12.8 12.8 0 -11.2896
138 1 14.4 14.4 1.6 -11.7221
139 2 16 12.8 0 -9.74888
140 1 17.6 14.4 1.6 -11.7898
141 2 19.2 12.8 0 -9.89728
142 2 20.8 14.4 1.6 -9.86282
143 1 22.4 12.8 0 -11.762
144 4 24 14.4 1.6 -13.2876
145 3 25.6 12.8 0 -11.3221
146 1 27.2 14.4 1.6 -11.8245
147 3 28.8 12.8 0 -11.2405
148 1 30.4 14.4 1.6 -11.8553
149 3 32 12.8 0 -11.2426
150 1 33.6 14.4 1.6 -11.8009
151 3 35.2 12.8 0 -11.3002
152 4 36.8 14.4 1.6 -13.3695
153 2 38.4 12.8 0 -9.91991
154 1 40 14.4 1.6 -11.7796
155 2 41.6 12.8 0 -9.79266
156 1 43.2 14.4 1.6 -11.8237
157 3 44.8 12.8 0 -11.2953
158 1 46.4 14.4 1.6 -11.8385
159 2 48 12.8 0 -9.78705
160 1 49.6 14.4 1.6 -11.7868
161 3 0 16 0 -11.3537
162 2 1.6 17.6 1.6 -9.83351
163 2 3.2 16 0 -9.89008
164 1 4.8 17.6 1.6 -11.6666
165 2 6.4 16 0 -9.90486
166 2 8 17.6 1.6 -9.8676
167 2 9.6 16 0 -9.87466
168 2 11.2 17.6 1.6 -9.87214
169 2 12.8 16 0 -9.88082
170 1 14.4 17.6 1.6 -11.8099
171 3 16 16 0 -11.1888
172 4 17.6 17.6 1.6 -13.4246
173 3 19.2 16 0 -11.3603
174 2 20.8 17.6 1.6 -9.93121
175 4 22.4 16 0 -13.3167
176 2 24 17.6 1.6 -9.87874
177 2 25.6 16 0 -9.88855
178 1 27.2 17.6 1.6 -11.8455
179 3 28.8 16 0 -11.2698
180 1 30.4 17.6 1.6 -11.8437
181 3 32 16 0 -11.2362
182 1 33.6 17.6 1.6 -11.8309
183 2 35.2 16 0 -9.90897
184 2 36.8 17.6 1.6 -9.89445
185 2 38.4 16 0 -9.9249
186 2 40 17.6 1.6 -9.91622
187 2 41.6 16 0 -9.91476
188 2 43.2 17.6 1.6 -9.92305
189 3 44.8 16 0 -11.4142
190 3 46.4 17.6 1.6 -11.399
191 3 48 16 0 -11.3506
192 3 49.6 17.6 1.6 -11.4198
193 3 0 19.2 0 -11.3793
194 4 1.6 20.8 1.6 -13.3592
195 2 3.2 19.2 0 -9.82261
196 2 4.8 20.8 1.6 -9.88611
197 2 6.4 19.2 0 -9.81497
198 3 8 20.8 1.6 -11.2644
199 1 9.6 19.2 0 -11.8552
200 2 11.2 20.8 1.6 -9.90157
201 3 12.8 19.2 0 -11.3024
202 1 14.4 20.8 1.6 -11.8021
203 2 16 19.2 0 -9.81596
204 2 17.6 20.8 1.6 -9.84198
205 1 19.2 19.2 0 -11.782
206 3 20.8 20.8 1.6 -11.3282
207 1 22.4 19.2 0 -11.8171
208 3 24 20.8 1.6 -11.4312
209 3 25.6 19.2 0 -11.4321
210 2 27.2 20.8 1.6 -9.91135
211 3 28.8 19.2 0 -11.3826
212 4 30.4 20.8 1.6 -13.3743
213 3 32 19.2 0 -11.3014
214 1 33.6 20.8 1.6 -11.7434
215 3 35.2 19.2 0 -11.2898
216 4 36.8 20.8 1.6 -13.3621
217 2 38.4 19.2 0 -9.90663
218 2 40 20.8 1.6 -9.88191
219 4 41.6 19.2 0 -13.3997
220 2 43.2 20.8 1.6 -9.88016
221 2 44.8 19.2 0 -9.96775
222 2 46.4 20.8 1.6 -9.92634
223 3 48 19.2 0 -11.3644
224 3 49.6 20.8 1.6 -11.3848
225 3 0 22.4 0 -11.3165
226 1 1.6 24 1.6 -11.7989
227 2 3.2 22.4 0 -9.89759
228 2 4.8 24 1.6 -9.93633
229 4 6.4 22.4 0 -13.4152
230 3 8 24 1.6 -11.3018
231 1 9.6 22.4 0 -11.7989
232 3 11.2 24 1.6 -11.3104
233 2 12.8 22.4 0 -9.87604
234 4 14.4 24 1.6 -13.3367
235 2 16 22.4 0 -9.8126
236 2 17.6 24 1.6 -9.87708
237 1 19.2 22.4 0 -11.8199
238 3 20.8 24 1.6 -11.2753
239 1 22.4 22.4 0 -11.8432
240 3 24 24 1.6 -11.295
241 3 25.6 22.4 0 -11.4164
242 2 27.2 24 1.6 -9.9419
243 2 28.8 22.4 0 -9.93474
244 4 30.4 24 1.6 -13.3892
245 3 32 22.4 0 -11.2293
246 1 33.6 24 1.6 -11.7045
247 2 35.2 22.4 0 -9.81425
248 2 36.8 24 1.6 -9.88227
249 3 38.4 22.4 0 -11.3805
250 1 40 24 1.6 -11.8814
251 3 41.6 22.4 0 -11.3267
252 1 43.2 24 1.6 -11.7573
253 3 44.8 22.4 0 -11.2426
254 2 46.4 24 1.6 -9.83491
255 4 48 22.4 0 -13.4184
256 2 49.6 24 1.6 -9.94367
257 2 0 25.6 0 -9.87563
259 2 3.2 25.6 0 -9.8495
261 1 6.4 25.6 0 -11.8297
263 1 9.6 25.6 0 -11.7947
265 2 12.8 25.6 0 -9.85761
267 2 16 25.6 0 -9.84004
269 1 19.2 25.6 0 -11.794
271 1 22.4 25.6 0 -11.8254
273 2 25.6 25.6 0 -9.87295
275 2 28.8 25.6 0 -9.85483
277 2 32 25.6 0 -9.8007
279 4 35.2 25.6 0 -13.3084
281 3 38.4 25.6 0 -11.3809
283 3 41.6 25.6 0 -11.3552
285 2 44.8 25.6 0 -9.87478
287 2 48 25.6 0 -9.88254
258 1 1.6 27.2 1.6 -11.7965
289 3 0 28.8 0 -11.2529
260 2 4.8 27.2 1.6 -9.90307
291 2 3.2 28.8 0 -9.80768
262 3 8 27.2 1.6 -11.2256
293 1 6.4 28.8 0 -11.7646
264 2 11.2 27.2 1.6 -9.88837
295 2 9.6 28.8 0 -9.8149
266 4 14.4 27.2 1.6 -13.3321
297 2 12.8 28.8 0 -9.93312
268 2 17.6 27.2 1.6 -9.90945
299 2 16 28.8 0 -9.91218
270 3 20.8 27.2 1.6 -11.2636
301 2 19.2 28.8 0 -9.87452
272 2 24 27.2 1.6 -9.83738
303 2 22.4 28.8 0 -9.84167
305 2 25.6 28.8 0 -9.91615
274 2 27.2 27.2 1.6 -9.87992
307 3 28.8 28.8 0 -11.3139
276 2 30.4 27.2 1.6 -9.8903
309 2 32 28.8 0 -9.90838
278 1 33.6 27.2 1.6 -11.7344
311 2 35.2 28.8 0 -9.88326
280 2 36.8 27.2 1.6 -9.89015
313 4 38.4 28.8 0 -13.3664
282 2 40 27.2 1.6 -9.84612
315 4 41.6 28.8 0 -13.3674
284 1 43.2 27.2 1.6 -11.7493
317 2 44.8 28.8 0 -9.84146
286 4 46.4 27.2 1.6 -13.3151
319 2 48 28.8 0 -9.86461
288 2 49.6 27.2 1.6 -9.84801
290 1 1.6 30.4 1.6 -11.7798
321 2 0 32 0 -9.86038
292 2 4.8 30.4 1.6 -9.86973
323 2 3.2 32 0 -9.83208
294 2 8 30.4 1.6 -9.82231
325 1 6.4 32 0 -11.7822
296 2 11.2 30.4 1.6 -9.8739
327 1 9.6 32 0 -11.8063
298 2 14.4 30.4 1.6 -9.83463
329 1 12.8 32 0 -11.7934
300 3 17.6 30.4 1.6 -11.3236
331 1 16 32 0 -11.7672
302 3 20.8 30.4 1.6 -11.3306
333 1 19.2 32 0 -11.8312
304 2 24 30.4 1.6 -9.78109
335 1 22.4 32 0 -11.8089
337 4 25.6 32 0 -13.3356
306 2 27.2 30.4 1.6 -9.83045
339 1 28.8 32 0 -11.8066
308 3 30.4 30.4 1.6 -11.3078
341 4 32 32 0 -13.3179
310 2 33.6 30.4 1.6 -9.80668
343 2 35.2 32 0 -9.86348
312 4 36.8 30.4 1.6 -13.4244
345 2 38.4 32 0 -9.85815
314 2 40 30.4 1.6 -9.88465
347 4 41.6 32 0 -13.3935
316 4 43.2 30.4 1.6 -13.3394
349 2 44.8 32 0 -9.81561
318 4 46.4 30.4 1.6 -13.2816
351 4 48 32 0 -13.3171
320 1 49.6 30.4 1.6 -11.8175
322 3 1.6 33.6 1.6 -11.3181
353 4 0 35.2 0 -13.3819
324 3 4.8 33.6 1.6 -11.3845
355 1 3.2 35.2 0 -11.8703
326 2 8 33.6 1.6 -9.92548
357 4 6.4 35.2 0 -13.3742
328 3 11.2 33.6 1.6 -11.4119
359 4 9.6 35.2 0 -13.3995
330 3 14.4 33.6 1.6 -11.4153
361 3 12.8 35.2 0 -11.5312
332 3 17.6 33.6 1.6 -11.3998
363 3 16 35.2 0 -11.3892
334 3 20.8 33.6 1.6 -11.4321
365 2 19.2 35.2 0 -9.92128
336 3 24 33.6 1.6 -11.3054
367 2 22.4 35.2 0 -9.89998
369 3 25.6 35.2 0 -11.3288
338 2 27.2 33.6 1.6 -9.8564
371 2 28.8 35.2 0 -9.86681
340 2 30.4 33.6 1.6 -9.873
373 3 32 35.2 0 -11.1849
342 1 33.6 33.6 1.6 -11.7788
375 2 35.2 35.2 0 -9.88562
344 2 36.8 33.6 1.6 -9.88176
377 1 38.4 35.2 0 -11.8329
346 3 40 33.6 1.6 -11.4125
379 1 41.6 35.2 0 -11.8405
348 3 43.2 33.6 1.6 -11.3764
381 1 44.8 35.2 0 -11.8635
350 3 46.4 33.6 1.6 -11.3612
383 4 48 35.2 0 -13.4204
352 2 49.6 33.6 1.6 -9.91372
354 3 1.6 36.8 1.6 -11.2767
385 1 0 38.4 0 -11.8701
356 3 4.8 36.8 1.6 -11.2967
387 1 3.2 38.4 0 -11.8114
358 2 8 36.8 1.6 -9.8825
389 1 6.4 38.4 0 -11.8031
360 3 11.2 36.8 1.6 -11.4113
391 1 9.6 38.4 0 -11.7661
362 2 14.4 36.8 1.6 -9.92425
393 3 12.8 38.4 0 -11.3808
364 1 17.6 36.8 1.6 -11.8725
395 3 16 38.4 0 -11.3625
366 4 20.8 36.8 1.6 -13.3755
397 3 19.2 38.4 0 -11.2703
368 1 24 36.8 1.6 -11.8452
399 3 22.4 38.4 0 -11.302
401 2 25.6 38.4 0 -9.86763
370 1 27.2 36.8 1.6 -11.7617
403 2 28.8 38.4 0 -9.83238
372 1 30.4 36.8 1.6 -11.7678
405 2 32 38.4 0 -9.90249
374 4 33.6 36.8 1.6 -13.3713
407 2 35.2 38.4 0 -9.90205
376 2 36.8 36.8 1.6 -9.92979
409 4 38.4 38.4 0 -13.3972
378 3 40 36.8 1.6 -11.374
411 4 41.6 38.4 0 -13.3969
380 2 43.2 36.8 1.6 -9.85807
413 1 44.8 38.4 0 -11.8277
382 3 46.4 36.8 1.6 -11.2381
415 1 48 38.4 0 -11.8553
384 3 49.6 36.8 1.6 -11.2727
386 3 1.6 40 1.6 -11.3071
417 4 0 41.6 0 -13.3383
388 2 4.8 40 1.6 -9.90259
419 1 3.2 41.6 0 -11.8319
390 2 8 40 1.6 -9.88252
421 2 6.4 41.6 0 -9.83869
392 4 11.2 40 1.6 -13.4176
423 2 9.6 41.6 0 -9.8507
394 2 14.4 40 1.6 -9.85723
425 2 12.8 41.6 0 -9.86848
396 1 17.6 40 1.6 -11.8278
427 2 16 41.6 0 -9.87108
398 1 20.8 40 1.6 -11.9085
429 3 19.2 41.6 0 -11.3388
400 4 24 40 1.6 -13.4304
431 3 22.4 41.6 0 -11.3879
433 4 25.6 41.6 0 -13.3247
402 2 27.2 40 1.6 -9.83026
435 1 28.8 41.6 0 -11.819
404 2 30.4 40 1.6 -9.91417
437 1 32 41.6 0 -11.8567
406 2 33.6 40 1.6 -9.92549
439 1 35.2 41.6 0 -11.8685
408 2 36.8 40 1.6 -9.88246
441 1 38.4 41.6 0 -11.7615
410 3 40 40 1.6 -11.2828
443 1 41.6 41.6 0 -11.8003
412 3 43.2 40 1.6 -11.268
445 1 44.8 41.6 0 -11.8548
414 3 46.4 40 1.6 -11.242
447 1 48 41.6 0 -11.8573
416 3 49.6 40 1.6 -11.2759
418 3 1.6 43.2 1.6 -11.3338
449 1 0 44.8 0 -11.8339
420 2 4.8 43.2 1.6 -9.85621
451 1 3.2 44.8 0 -11.7654
422 2 8 43.2 1.6 -9.86084
453 1 6.4 44.8 0 -11.7097
424 1 11.2 43.2 1.6 -11.7641
455 2 9.6 44.8 0 -9.81874
426 1 14.4 43.2 1.6 -11.8198
457 3 12.8 44.8 0 -11.2544
428 1 17.6 43.2 1.6 -11.8273
459 3 16 44.8 0 -11.3228
430 4 20.8 43.2 1.6 -13.417
461 3 19.2 44.8 0 -11.2952
432 3 24 43.2 1.6 -11.337
463 3 22.4 44.8 0 -11.2989
465 3 25.6 44.8 0 -11.3045
434 2 27.2 43.2 1.6 -9.91184
467 1 28.8 44.8 0 -11.7774
436 3 30.4 43.2 1.6 -11.3404
469 1 32 44.8 0 -11.8642
438 3 33.6 43.2 1.6 -11.4648
471 3 35.2 44.8 0 -11.45
440 3 36.8 43.2 1.6 -11.3484
473 3 38.4 44.8 0 -11.2766
442 2 40 43.2 1.6 -9.83287
475 2 41.6 44.8 0 -9.92132
444 2 43.2 43.2 1.6 -9.83462
477 2 44.8 44.8 0 -9.85149
446 3 46.4 43.2 1.6 -11.3296
479 2 48 44.8 0 -9.79647
448 3 49.6 43.2 1.6 -11.2661
450 3 1.6 46.4 1.6 -11.314
481 2 0 48 0 -9.80274
452 2 4.8 46.4 1.6 -9.88106
483 1 3.2 48 0 -11.8158
454 2 8 46.4 1.6 -9.91062
485 2 6.4 48 0 -9.9159
456 2 11.2 46.4 1.6 -9.84487
487 2 9.6 48 0 -9.92231
458 1 14.4 46.4 1.6 -11.8388
489 4 12.8 48 0 -13.4279
460 1 17.6 46.4 1.6 -11.7604
491 2 16 48 0 -9.88032
462 1 20.8 46.4 1.6 -11.7874
493 2 19.2 48 0 -9.8835
464 1 24 46.4 1.6 -11.8361
495 3 22.4 48 0 -11.3513
497 2 25.6 48 0 -9.84614
466 2 27.2 46.4 1.6 -9.81351
499 1 28.8 48 0 -11.7432
468 2 30.4 46.4 1.6 -9.83291
501 1 32 48 0 -11.7937
470 2 33.6 46.4 1.6 -9.9051
503 2 35.2 48 0 -9.90413
472 1 36.8 46.4 1.6 -11.8246
505 2 38.4 48 0 -9.85755
474 1 40 46.4 1.6 -11.7812
507 3 41.6 48 0 -11.3018
476 2 43.2 46.4 1.6 -9.85346
509 4 44.8 48 0 -13.3292
478 2 46.4 46.4 1.6 -9.869
511 1 48 48 0 -11.7215
480 2 49.6 46.4 1.6 -9.87497
482 4 1.6 49.6 1.6 -13.4111
484 3 4.8 49.6 1.6 -11.4124
486 3 8 49.6 1.6 -11.4454
488 2 11.2 49.6 1.6 -9.93741
490 3 14.4 49.6 1.6 -11.2778
492 2 17.6 49.6 1.6 -9.91257
494 3 20.8 49.6 1.6 -11.3583
496 2 24 49.6 1.6 -9.92259
498 2 27.2 49.6 1.6 -9.90343
500 2 30.4 49.6 1.6 -9.88762
502 2 33.6 49.6 1.6 -9.89375
504 2 36.8 49.6 1.6 -9.91389
506 4 40 49.6 1.6 -13.4154
508 4 43.2 49.6 1.6 -13.4389
510 3 46.4 49.6 1.6 -11.1107
512 2 49.6 49.6 1.6 -9.78467
513 2 0 0 3.2 -9.79798
514 2 1.6 1.6 4.8 -9.86101
515 4 3.2 0 3.2 -13.457
516 2 4.8 1.6 4.8 -9.9451
517 3 6.4 0 3.2 -11.4029
518 3 8 1.6 4.8 -11.3523
519 1 9.6 0 3.2 -11.8734
520 2 11.2 1.6 4.8 -9.94861
521 1 12.8 0 3.2 -11.7859
522 2 14.4 1.6 4.8 -9.81428
523 1 16 0 3.2 -11.8173
524 3 17.6 1.6 4.8 -11.2629
525 1 19.2 0 3.2 -11.8194
526 2 20.8 1.6 4.8 -9.78134
527 1 22.4 0 3.2 -11.8115
528 3 24 1.6 4.8 -11.1998
529 2 25.6 0 3.2 -9.83856
530 2 27.2 1.6 4.8 -9.80896
531 2 28.8 0 3.2 -9.87441
532 3 30.4 1.6 4.8 -11.326
533 4 32 0 3.2 -13.4406
534 3 33.6 1.6 4.8 -11.2857
535 1 35.2 0 3.2 -11.7965
536 2 36.8 1.6 4.8 -9.8465
537 2 38.4 0 3.2 -9.91632
538 3 40 1.6 4.8 -11.326
539 3 41.6 0 3.2 -11.3993
540 4 43.2 1.6 4.8 -13.3886
541 2 44.8 0 3.2 -9.84772
542 2 46.4 1.6 4.8 -9.84858
543 1 48 0 3.2 -11.7361
544 2 49.6 1.6 4.8 -9.83376
545 1 0 3.2 3.2 -11.7593
546 2 1.6 4.8 4.8 -9.89307
547 2 3.2 3.2 3.2 -9.83458
548 2 4.8 4.8 4.8 -9.86925
549 4 6.4 3.2 3.2 -13.3953
550 2 8 4.8 4.8 -9.94454
551 3 9.6 3.2 3.2 -11.3872
552 3 11.2 4.8 4.8 -11.3905
553 2 12.8 3.2 3.2 -9.95199
554 4 14.4 4.8 4.8 -13.3502
555 2 16 3.2 3.2 -9.85568
556 2 17.6 4.8 4.8 -9.85174
557 2 19.2 3.2 3.2 -9.84537
558 2 20.8 4.8 4.8 -9.85373
559 1 22.4 3.2 3.2 -11.7587
560 3 24 4.8 4.8 -11.2045
561 1 25.6 3.2 3.2 -11.814
562 3 27.2 4.8 4.8 -11.2042
563 1 28.8 3.2 3.2 -11.7861
564 3 30.4 4.8 4.8 -11.3023
565 2 32 3.2 3.2 -9.83757
566 2 33.6 4.8 4.8 -9.87188
567 1 35.2 3.2 3.2 -11.7431
568 2 36.8 4.8 4.8 -9.9081
569 4 38.4 3.2 3.2 -13.3869
570 2 40 4.8 4.8 -9.94829
571 2 41.6 3.2 3.2 -9.93548
572 2 43.2 4.8 4.8 -9.90031
573 2 44.8 3.2 3.2 -9.89313
574 3 46.4 4.8 4.8 -11.3124
575 1 48 3.2 3.2 -11.7455
576 2 49.6 4.8 4.8 -9.78296
577 1 0 6.4 3.2 -11.8149
578 3 1.6 8 4.8 -11.3092
579 2 3.2 6.4 3.2 -9.82084
580 3 4.8 8 4.8 -11.3023
581 2 6.4 6.4 3.2 -9.88587
582 3 8 8 4.8 -11.3541
583 3 9.6 6.4 3.2 -11.4626
584 2 11.2 8 4.8 -9.88644
585 3 12.8 6.4 3.2 -11.3472
586 1 14.4 8 4.8 -11.807
587 2 16 6.4 3.2 -9.84026
588 4 17.6 8 4.8 -13.4222
589 3 19.2 6.4 3.2 -11.4128
590 3 20.8 8 4.8 -11.3991
591 1 22.4 6.4 3.2 -11.8271
592 3 24 8 4.8 -11.2743
593 1 25.6 6.4 3.2 -11.8274
594 3 27.2 8 4.8 -11.3882
595 1 28.8 6.4 3.2 -11.8482
596 3 30.4 8 4.8 -11.4232
597 2 32 6.4 3.2 -9.90409
598 2 33.6 8 4.8 -9.93431
599 2 35.2 6.4 3.2 -9.9181
600 3 36.8 8 4.8 -11.3926
601 3 38.4 6.4 3.2 -11.3133
602 4 40 8 4.8 -13.4592
603 2 41.6 6.4 3.2 -9.91318
604 4 43.2 8 4.8 -13.4254
605 2 44.8 6.4 3.2 -9.92057
606 3 46.4 8 4.8 -11.3906
607 1 48 6.4 3.2 -11.8154
608 3 49.6 8 4.8 -11.201
609 1 0 9.6 3.2 -11.7701
610 3 1.6 11.2 4.8 -11.2748
611 1 3.2 9.6 3.2 -11.8136
612 3 4.8 11.2 4.8 -11.2051
613 1 6.4 9.6 3.2 -11.8169
614 3 8 11.2 4.8 -11.3547
615 2 9.6 9.6 3.2 -9.93668
616 2 11.2 11.2 4.8 -9.86581
617 3 12.8 9.6 3.2 -11.3325
618 4 14.4 11.2 4.8 -13.329
619 3 16 9.6 3.2 -11.2377
620 1 17.6 11.2 4.8 -11.8737
621 3 19.2 9.6 3.2 -11.4725
622 3 20.8 11.2 4.8 -11.4048
623 1 22.4 9.6 3.2 -11.8455
624 3 24 11.2 4.8 -11.4155
625 1 25.6 9.6 3.2 -11.8576
626 3 27.2 11.2 4.8 -11.4151
627 2 28.8 9.6 3.2 -9.88943
628 1 30.4 11.2 4.8 -11.8608
629 3 32 9.6 3.2 -11.3793
630 1 33.6 11.2 4.8 -11.7739
631 2 35.2 9.6 3.2 -9.90762
632 2 36.8 11.2 4.8 -9.9467
633 4 38.4 9.6 3.2 -13.4759
634 3 40 11.2 4.8 -11.4212
635 3 41.6 9.6 3.2 -11.2624
636 2 43.2 11.2 4.8 -9.92914
637 2 44.8 9.6 3.2 -9.92823
638 3 46.4 11.2 4.8 -11.4273
639 1 48 9.6 3.2 -11.7743
640 3 49.6 11.2 4.8 -11.3283
641 2 0 12.8 3.2 -9.82796
642 3 1.6 14.4 4.8 -11.3255
643 1 3.2 12.8 3.2 -11.8208
644 3 4.8 14.4 4.8 -11.2948
645 1 6.4 12.8 3.2 -11.7642
646 2 8 14.4 4.8 -9.91723
647 3 9.6 12.8 3.2 -11.3306
648 4 11.2 14.4 4.8 -13.3426
649 3 12.8 12.8 3.2 -11.2999
650 1 14.4 14.4 4.8 -11.755
651 2 16 12.8 3.2 -9.7788
652 2 17.6 14.4 4.8 -9.88331
653 3 19.2 12.8 3.2 -11.4117
654 3 20.8 14.4 4.8 -11.3958
655 1 22.4 12.8 3.2 -11.8043
656 3 24 14.4 4.8 -11.3181
657 3 25.6 12.8 3.2 -11.3776
658 4 27.2 14.4 4.8 -13.4463
659 3 28.8 12.8 3.2 -11.361
660 4 30.4 14.4 4.8 -13.3554
661 3 32 12.8 3.2 -11.2013
662 1 33.6 14.4 4.8 -11.7972
663 2 35.2 12.8 3.2 -9.80916
664 1 36.8 14.4 4.8 -11.8304
665 2 38.4 12.8 3.2 -9.88143
666 1 40 14.4 4.8 -11.8316
667 2 41.6 12.8 3.2 -9.88073
668 4 43.2 14.4 4.8 -13.3799
669 3 44.8 12.8 3.2 -11.3441
670 4 46.4 14.4 4.8 -13.3415
671 2 48 12.8 3.2 -9.87077
672 2 49.6 14.4 4.8 -9.86491
673 2 0 16 3.2 -9.8945
674 3 1.6 17.6 4.8 -11.2625
675 4 3.2 16 3.2 -13.3641
676 3 4.8 17.6 4.8 -11.2953
677 2 6.4 16 3.2 -9.82975
678 3 8 17.6 4.8 -11.2966
679 2 9.6 16 3.2 -9.88077
680 2 11.2 17.6 4.8 -9.92323
681 3 12.8 16 3.2 -11.2873
682 2 14.4 17.6 4.8 -9.89783
683 2 16 16 3.2 -9.85619
684 3 17.6 17.6 4.8 -11.3855
685 3 19.2 16 3.2 -11.471
686 3 20.8 17.6 4.8 -11.4283
687 1 22.4 16 3.2 -11.8109
688 3 24 17.6 4.8 -11.3541
689 2 25.6 16 3.2 -9.87543
690 2 27.2 17.6 4.8 -9.83414
691 3 28.8 16 3.2 -11.2951
692 2 30.4 17.6 4.8 -9.84403
693 3 32 16 3.2 -11.3329
694 2 33.6 17.6 4.8 -9.86649
695 3 35.2 16 3.2 -11.3257
696 4 36.8 17.6 4.8 -13.4141
697 3 38.4 16 3.2 -11.3532
698 4 40 17.6 4.8 -13.4275
699 3 41.6 16 3.2 -11.3533
700 4 43.2 17.6 4.8 -13.3276
701 3 44.8 16 3.2 -11.4071
702 4 46.4 17.6 4.8 -13.3776
703 2 48 16 3.2 -9.8833
704 2 49.6 17.6 4.8 -9.84692
705 1 0 19.2 3.2 -11.7984
706 2 1.6 20.8 4.8 -9.81156
707 1 3.2 19.2 3.2 -11.7006
708 3 4.8 20.8 4.8 -11.2684
709 1 6.4 19.2 3.2 -11.7705
710 3 8 20.8 4.8 -11.342
711 1 9.6 19.2 3.2 -11.7904
712 3 11.2 20.8 4.8 -11.3358
713 2 12.8 19.2 3.2 -9.93152
714 1 14.4 20.8 4.8 -11.8609
715 3 16 19.2 3.2 -11.3476
716 1 17.6 20.8 4.8 -11.8179
717 2 19.2 19.2 3.2 -9.94652
718 2 20.8 20.8 4.8 -9.89086
719 2 22.4 19.2 3.2 -9.84681
720 3 24 20.8 4.8 -11.2579
721 2 25.6 19.2 3.2 -9.90793
722 2 27.2 20.8 4.8 -9.80855
723 2 28.8 19.2 3.2 -9.88957
724 2 30.4 20.8 4.8 -9.80864
725 2 32 19.2 3.2 -9.81691
726 4 33.6 20.8 4.8 -13.2621
727 2 35.2 19.2 3.2 -9.84343
728 1 36.8 20.8 4.8 -11.8103
729 2 38.4 19.2 3.2 -9.95461
730 2 40 20.8 4.8 -9.84226
731 2 41.6 19.2 3.2 -9.90758
732 1 43.2 20.8 4.8 -11.7303
733 2 44.8 19.2 3.2 -9.87161
734 2 46.4 20.8 4.8 -9.84132
735 1 48 19.2 3.2 -11.8441
736 3 49.6 20.8 4.8 -11.3258
737 2 0 22.4 3.2 -9.89884
738 2 1.6 24 4.8 -9.9166
739 3 3.2 22.4 3.2 -11.3122
740 2 4.8 24 4.8 -9.91896
741 4 6.4 22.4 3.2 -13.4328
742 3 8 24 4.8 -11.3549
743 1 9.6 22.4 3.2 -11.8713
744 2 11.2 24 4.8 -9.96624
745 3 12.8 22.4 3.2 -11.3351
746 1 14.4 24 4.8 -11.803
747 3 16 22.4 3.2 -11.3597
748 2 17.6 24 4.8 -9.89758
749 2 19.2 22.4 3.2 -9.84713
750 3 20.8 24 4.8 -11.2328
751 1 22.4 22.4 3.2 -11.8703
752 3 24 24 4.8 -11.2438
753 1 25.6 22.4 3.2 -11.8601
754 3 27.2 24 4.8 -11.318
755 2 28.8 22.4 3.2 -9.90319
756 3 30.4 24 4.8 -11.4246
757 2 32 22.4 3.2 -9.85746
758 2 33.6 24 4.8 -9.90578
759 2 35.2 22.4 3.2 -9.83956
760 2 36.8 24 4.8 -9.89707
761 3 38.4 22.4 3.2 -11.3418
762 1 40 24 4.8 -11.7644
763 2 41.6 22.4 3.2 -9.80389
764 1 43.2 24 4.8 -11.6603
765 4 44.8 22.4 3.2 -13.3095
766 3 46.4 24 4.8 -11.3318
767 4 48 22.4 3.2 -13.3809
768 3 49.6 24 4.8 -11.3944
769 2 0 25.6 3.2 -9.9431
771 3 3.2 25.6 3.2 -11.4096
773 2 6.4 25.6 3.2 -9.85146
775 1 9.6 25.6 3.2 -11.8184
777 2 12.8 25.6 3.2 -9.85598
779 2 16 25.6 3.2 -9.86108
781 1 19.2 25.6 3.2 -11.8179
783 1 22.4 25.6 3.2 -11.8115
785 1 25.6 25.6 3.2 -11.8308
787 3 28.8 25.6 3.2 -11.384
789 2 32 25.6 3.2 -9.86214
791 2 35.2 25.6 3.2 -9.87569
793 2 38.4 25.6 3.2 -9.92877
795 3 41.6 25.6 3.2 -11.1169
797 2 44.8 25.6 3.2 -9.75322
799 4 48 25.6 3.2 -13.4231
770 3 1.6 27.2 4.8 -11.3418
801 3 0 28.8 3.2 -11.4032
772 2 4.8 27.2 4.8 -9.89931
803 2 3.2 28.8 3.2 -9.89255
774 2 8 27.2 4.8 -9.87534
805 4 6.4 28.8 3.2 -13.3393
776 2 11.2 27.2 4.8 -9.87183
807 1 9.6 28.8 3.2 -11.7874
778 1 14.4 27.2 4.8 -11.7645
809 2 12.8 28.8 3.2 -9.86136
780 3 17.6 27.2 4.8 -11.251
811 2 16 28.8 3.2 -9.86707
782 3 20.8 27.2 4.8 -11.3096
813 1 19.2 28.8 3.2 -11.8587
784 3 24 27.2 4.8 -11.2636
815 1 22.4 28.8 3.2 -11.8122
817 1 25.6 28.8 3.2 -11.7554
786 3 27.2 27.2 4.8 -11.3613
819 1 28.8 28.8 3.2 -11.8309
788 3 30.4 27.2 4.8 -11.3428
821 4 32 28.8 3.2 -13.3505
790 2 33.6 27.2 4.8 -9.88516
823 2 35.2 28.8 3.2 -9.86837
792 2 36.8 27.2 4.8 -9.92832
825 2 38.4 28.8 3.2 -9.86778
794 1 40 27.2 4.8 -11.7356
827 2 41.6 28.8 3.2 -9.82265
796 1 43.2 27.2 4.8 -11.6675
829 2 44.8 28.8 3.2 -9.81469
798 2 46.4 27.2 4.8 -9.88032
831 2 48 28.8 3.2 -9.90797
800 4 49.6 27.2 4.8 -13.4763
802 2 1.6 30.4 4.8 -9.94028
833 3 0 32 3.2 -11.3954
804 3 4.8 30.4 4.8 -11.3351
835 4 3.2 32 3.2 -13.4564
806 2 8 30.4 4.8 -9.90195
837 2 6.4 32 3.2 -9.89527
808 2 11.2 30.4 4.8 -9.86823
839 2 9.6 32 3.2 -9.85141
810 2 14.4 30.4 4.8 -9.82825
841 1 12.8 32 3.2 -11.7557
812 2 17.6 30.4 4.8 -9.89636
843 1 16 32 3.2 -11.8064
814 3 20.8 30.4 4.8 -11.3338
845 4 19.2 32 3.2 -13.4145
816 2 24 30.4 4.8 -9.77484
847 1 22.4 32 3.2 -11.7893
849 1 25.6 32 3.2 -11.7387
818 3 27.2 30.4 4.8 -11.1973
851 1 28.8 32 3.2 -11.7838
820 2 30.4 30.4 4.8 -9.86126
853 2 32 32 3.2 -9.87417
822 4 33.6 30.4 4.8 -13.3992
855 2 35.2 32 3.2 -9.86927
824 4 36.8 30.4 4.8 -13.32
857 3 38.4 32 3.2 -11.3372
826 1 40 30.4 4.8 -11.7769
859 3 41.6 32 3.2 -11.3797
828 2 43.2 30.4 4.8 -9.82699
861 4 44.8 32 3.2 -13.4075
830 2 46.4 30.4 4.8 -9.90854
863 2 48 32 3.2 -9.86505
832 3 49.6 30.4 4.8 -11.395
834 2 1.6 33.6 4.8 -9.96732
865 1 0 35.2 3.2 -11.8729
836 2 4.8 33.6 4.8 -9.91873
867 1 3.2 35.2 3.2 -11.8331
838 4 8 33.6 4.8 -13.4262
869 2 6.4 35.2 3.2 -9.92977
840 1 11.2 33.6 4.8 -11.8099
871 3 9.6 35.2 3.2 -11.3942
842 2 14.4 33.6 4.8 -9.85793
873 3 12.8 35.2 3.2 -11.3714
844 2 17.6 33.6 4.8 -9.928
875 2 16 35.2 3.2 -9.93656
846 3 20.8 33.6 4.8 -11.4223
877 3 19.2 35.2 3.2 -11.4389
848 2 24 33.6 4.8 -9.85151
879 2 22.4 35.2 3.2 -9.92571
881 2 25.6 35.2 3.2 -9.92119
850 3 27.2 33.6 4.8 -11.2873
883 2 28.8 35.2 3.2 -9.82243
852 3 30.4 33.6 4.8 -11.3397
885 3 32 35.2 3.2 -11.3617
854 1 33.6 33.6 4.8 -11.8368
887 3 35.2 35.2 3.2 -11.2964
856 1 36.8 33.6 4.8 -11.8062
889 2 38.4 35.2 3.2 -9.87613
858 1 40 33.6 4.8 -11.794
891 2 41.6 35.2 3.2 -9.90822
860 2 43.2 33.6 4.8 -9.9029
893 1 44.8 35.2 3.2 -11.8003
862 3 46.4 33.6 4.8 -11.2688
895 1 48 35.2 3.2 -11.8564
864 3 49.6 33.6 4.8 -11.4355
866 3 1.6 36.8 4.8 -11.325
897 1 0 38.4 3.2 -11.8669
868 2 4.8 36.8 4.8 -9.88181
899 1 3.2 38.4 3.2 -11.8181
870 1 8 36.8 4.8 -11.8041
901 2 6.4 38.4 3.2 -9.85509
872 1 11.2 36.8 4.8 -11.7711
903 2 9.6 38.4 3.2 -9.87184
874 1 14.4 36.8 4.8 -11.7935
905 4 12.8 38.4 3.2 -13.4267
876 1 17.6 36.8 4.8 -11.8386
907 3 16 38.4 3.2 -11.3227
878 4 20.8 36.8 4.8 -13.468
909 3 19.2 38.4 3.2 -11.3402
880 3 24 36.8 4.8 -11.3868
911 3 22.4 38.4 3.2 -11.4355
913 3 25.6 38.4 3.2 -11.3314
882 1 27.2 36.8 4.8 -11.8079
915 2 28.8 38.4 3.2 -9.8342
884 1 30.4 36.8 4.8 -11.785
917 3 32 38.4 3.2 -11.3229
886 1 33.6 36.8 4.8 -11.8252
919 3 35.2 38.4 3.2 -11.3549
888 1 36.8 36.8 4.8 -11.8131
921 2 38.4 38.4 3.2 -9.87348
890 1 40 36.8 4.8 -11.8458
923 2 41.6 38.4 3.2 -9.90335
892 2 43.2 36.8 4.8 -9.90877
925 1 44.8 38.4 3.2 -11.8523
894 3 46.4 36.8 4.8 -11.3536
927 1 48 38.4 3.2 -11.8778
896 3 49.6 36.8 4.8 -11.4465
898 3 1.6 40 4.8 -11.3285
929 1 0 41.6 3.2 -11.8548
900 2 4.8 40 4.8 -9.83684
931 2 3.2 41.6 3.2 -9.82274
902 1 8 40 4.8 -11.8126
933 3 6.4 41.6 3.2 -11.3681
904 2 11.2 40 4.8 -9.83046
935 3 9.6 41.6 3.2 -11.3154
906 2 14.4 40 4.8 -9.88714
937 2 12.8 41.6 3.2 -9.84409
908 4 17.6 40 4.8 -13.3784
939 2 16 41.6 3.2 -9.91121
910 1 20.8 40 4.8 -11.8353
941 3 19.2 41.6 3.2 -11.3271
912 3 24 40 4.8 -11.3243
943 3 22.4 41.6 3.2 -11.3954
945 4 25.6 41.6 3.2 -13.4501
914 4 27.2 40 4.8 -13.3826
947 2 28.8 41.6 3.2 -9.88278
916 4 30.4 40 4.8 -13.375
949 3 32 41.6 3.2 -11.3991
918 1 33.6 40 4.8 -11.8257
951 2 35.2 41.6 3.2 -9.87461
920 1 36.8 40 4.8 -11.7476
953 1 38.4 41.6 3.2 -11.7121
922 2 40 40 4.8 -9.8204
955 1 41.6 41.6 3.2 -11.7731
924 3 43.2 40 4.8 -11.3689
957 1 44.8 41.6 3.2 -11.7948
926 3 46.4 40 4.8 -11.412
959 1 48 41.6 3.2 -11.8564
928 3 49.6 40 4.8 -11.3804
930 2 1.6 43.2 4.8 -9.84586
961 1 0 44.8 3.2 -11.8275
932 1 4.8 43.2 4.8 -11.7081
963 2 3.2 44.8 3.2 -9.84834
934 1 8 43.2 4.8 -11.7801
965 2 6.4 44.8 3.2 -9.81639
936 4 11.2 43.2 4.8 -13.3545
967 4 9.6 44.8 3.2 -13.3578
938 2 14.4 43.2 4.8 -9.8965
969 3 12.8 44.8 3.2 -11.3437
940 2 17.6 43.2 4.8 -9.92565
971 3 16 44.8 3.2 -11.3472
942 2 20.8 43.2 4.8 -9.84894
973 2 19.2 44.8 3.2 -9.838
944 2 24 43.2 4.8 -9.92813
975 2 22.4 44.8 3.2 -9.92854
977 2 25.6 44.8 3.2 -9.88238
946 4 27.2 43.2 4.8 -13.3
979 2 28.8 44.8 3.2 -9.86029
948 1 30.4 43.2 4.8 -11.8584
981 3 32 44.8 3.2 -11.3727
950 1 33.6 43.2 4.8 -11.8678
983 3 35.2 44.8 3.2 -11.4538
952 4 36.8 43.2 4.8 -13.3708
985 2 38.4 44.8 3.2 -9.89059
954 2 40 43.2 4.8 -9.82434
987 2 41.6 44.8 3.2 -9.80332
956 2 43.2 43.2 4.8 -9.76175
989 1 44.8 44.8 3.2 -11.794
958 3 46.4 43.2 4.8 -11.3256
991 4 48 44.8 3.2 -13.3673
960 2 49.6 43.2 4.8 -9.94333
962 4 1.6 46.4 4.8 -13.4323
993 2 0 48 3.2 -9.90788
964 1 4.8 46.4 4.8 -11.7403
995 3 3.2 48 3.2 -11.2851
966 2 8 46.4 4.8 -9.80075
997 2 6.4 48 3.2 -9.96247
968 2 11.2 46.4 4.8 -9.92863
999 4 9.6 48 3.2 -13.4175
970 2 14.4 46.4 4.8 -9.93081
1001 2 12.8 48 3.2 -9.8715
972 2 17.6 46.4 4.8 -9.83262
1003 2 16 48 3.2 -9.85775
974 2 20.8 46.4 4.8 -9.81234
1005 4 19.2 48 3.2 -13.3563
976 2 24 46.4 4.8 -9.78929
1007 3 22.4 48 3.2 -11.2816
1009 4 25.6 48 3.2 -13.3489
978 1 27.2 46.4 4.8 -11.6993
1011 2 28.8 48 3.2 -9.83344
980 1 30.4 46.4 4.8 -11.7916
1013 2 32 48 3.2 -9.88658
982 1 33.6 46.4 4.8 -11.8475
1015 2 35.2 48 3.2 -9.9047
984 2 36.8 46.4 4.8 -9.86557
1017 2 38.4 48 3.2 -9.85201
986 2 40 46.4 4.8 -9.7858
1019 2 41.6 48 3.2 -9.8883
988 2 43.2 46.4 4.8 -9.81921
1021 4 44.8 48 3.2 -13.3537
990 3 46.4 46.4 4.8 -11.3459
1023 1 48 48 3.2 -11.7861
992 3 49.6 46.4 4.8 -11.3872
994 2 1.6 49.6 4.8 -9.8698
996 4 4.8 49.6 4.8 -13.4226
998 2 8 49.6 4.8 -9.94206
1000 3 11.2 49.6 4.8 -11.2865
1002 3 14.4 49.6 4.8 -11.2986
1004 3 17.6 49.6 4.8 -11.3035
1006 3 20.8 49.6 4.8 -11.2963
1008 2 24 49.6 4.8 -9.86902
1010 2 27.2 49.6 4.8 -9.78426
1012 2 30.4 49.6 4.8 -9.87504
1014 2 33.6 49.6 4.8 -9.90193
1016 3 36.8 49.6 4.8 -11.3074
1018 2 40 49.6 4.8 -9.8752
1020 2 43.2 49.6 4.8 -9.88731
1022 2 46.4 49.6 4.8 -9.91474
1024 2 49.6 49.6 4.8 -9.90419
1025 2 0 0 6.4 -9.90547
1026 1 1.6 1.6 8 -11.7519
1027 2 3.2 0 6.4 -9.86354
1028 2 4.8 1.6 8 -9.9093
1029 2 6.4 0 6.4 -9.92321
1030 4 8 1.6 8 -13.38
1031 2 9.6 0 6.4 -9.84208
1032 2 11.2 1.6 8 -9.87305
1033 1 12.8 0 6.4 -11.8064
1034 3 14.4 1.6 8 -11.2964
1035 1 16 0 6.4 -11.8505
1036 3 17.6 1.6 8 -11.2695
1037 4 19.2 0 6.4 -13.3378
1038 3 20.8 1.6 8 -11.24
1039 1 22.4 0 6.4 -11.799
1040 3 24 1.6 8 -11.3094
1041 1 25.6 0 6.4 -11.7764
1042 3 27.2 1.6 8 -11.3097
1043 1 28.8 0 6.4 -11.7277
1044 2 30.4 1.6 8 -9.86371
1045 2 32 0 6.4 -9.83663
1046 2 33.6 1.6 8 -9.84266
1047 4 35.2 0 6.4 -13.3521
1048 2 36.8 1.6 8 -9.82131
1049 1 38.4 0 6.4 -11.7821
1050 2 40 1.6 8 -9.79177
1051 4 41.6 0 6.4 -13.2942
1052 2 43.2 1.6 8 -9.79091
1053 4 44.8 0 6.4 -13.3894
1054 2 46.4 1.6 8 -9.88815
1055 2 48 0 6.4 -9.87022
1056 2 49.6 1.6 8 -9.87761
1057 2 0 3.2 6.4 -9.86951
1058 3 1.6 4.8 8 -11.3245
1059 2 3.2 3.2 6.4 -9.85836
1060 3 4.8 4.8 8 -11.4131
1061 4 6.4 3.2 6.4 -13.3995
1062 3 8 4.8 8 -11.3124
1063 4 9.6 3.2 6.4 -13.4244
1064 2 11.2 4.8 8 -9.84669
1065 2 12.8 3.2 6.4 -9.80159
1066 2 14.4 4.8 8 -9.82178
1067 1 16 3.2 6.4 -11.7687
1068 2 17.6 4.8 8 -9.85566
1069 1 19.2 3.2 6.4 -11.8058
1070 3 20.8 4.8 8 -11.2962
1071 1 22.4 3.2 6.4 -11.7803
1072 3 24 4.8 8 -11.24
1073 1 25.6 3.2 6.4 -11.8116
1074 3 27.2 4.8 8 -11.3394
1075 1 28.8 3.2 6.4 -11.824
1076 3 30.4 4.8 8 -11.3068
1077 1 32 3.2 6.4 -11.8275
1078 3 33.6 4.8 8 -11.2327
1079 4 35.2 3.2 6.4 -13.2956
1080 3 36.8 4.8 8 -11.2981
1081 4 38.4 3.2 6.4 -13.3177
1082 3 40 4.8 8 -11.2617
1083 4 41.6 3.2 6.4 -13.3441
1084 2 43.2 4.8 8 -9.86783
1085 4 44.8 3.2 6.4 -13.3331
1086 2 46.4 4.8 8 -9.84286
1087 4 48 3.2 6.4 -13.3179
1088 2 49.6 4.8 8 -9.86028
1089 4 0 6.4 6.4 -13.3334
1090 3 1.6 8 8 -11.2733
1091 1 3.2 6.4 6.4 -11.8736
1092 3 4.8 8 8 -11.3376
1093 1 6.4 6.4 6.4 -11.8554
1094 3 8 8 8 -11.3353
1095 1 9.6 6.4 6.4 -11.8168
1096 2 11.2 8 8 -9.81922
1097 4 12.8 6.4 6.4 -13.3541
1098 2 14.4 8 8 -9.87543
1099 2 16 6.4 6.4 -9.855
1100 2 17.6 8 8 -9.91521
1101 2 19.2 6.4 6.4 -9.91997
1102 2 20.8 8 8 -9.93954