ITEM: TIMESTEP
0
ITEM: NUMBER OF ATOMS
8192
ITEM: BOX BOUNDS pp pp pp
0.0000000000000000e+00 5.1200000000000003e+01
0.0000000000000000e+00 5.1200000000000003e+01
0.0000000000000000e+00 5.1200000000000003e+01
ITEM: ATOMS id type x y z c_eng
1 1 0 0 0 -11.8697
2 3 1.6 1.6 1.6 -11.3376
3 4 3.2 0 0 -13.3586
4 2 4.8 1.6 1.6 -9.91468
5 2 6.4 0 0 -9.87446
6 2 8 1.6 1.6 -9.94096
7 2 9.6 0 0 -9.93564
8 2 11.2 1.6 1.6 -9.9495
9 2 12.8 0 0 -9.93882
10 2 14.4 1.6 1.6 -9.94291
11 2 16 0 0 -9.94351
12 2 17.6 1.6 1.6 -9.90364
13 3 19.2 0 0 -11.328
14 2 20.8 1.6 1.6 -9.92596
15 2 22.4 0 0 -9.9088
16 2 24 1.6 1.6 -9.92861
17 4 25.6 0 0 -13.4204
18 2 27.2 1.6 1.6 -9.9117
19 2 28.8 0 0 -9.86935
20 2 30.4 1.6 1.6 -9.87085
21 1 32 0 0 -11.8633
22 3 33.6 1.6 1.6 -11.307
23 1 35.2 0 0 -11.8553
24 3 36.8 1.6 1.6 -11.2039
25 1 38.4 0 0 -11.8415
26 3 40 1.6 1.6 -11.242
27 1 41.6 0 0 -11.8417
28 3 43.2 1.6 1.6 -11.2414
29 1 44.8 0 0 -11.8417
30 3 46.4 1.6 1.6 -11.2414
31 1 48 0 0 -11.8415
32 3 49.6 1.6 1.6 -11.2753
33 1 0 3.2 0 -11.8278
34 3 1.6 4.8 1.6 -11.2282
35 4 3.2 3.2 0 -13.322
36 2 4.8 4.8 1.6 -9.90894
37 2 6.4 3.2 0 -9.92076
38 2 8 4.8 1.6 -9.90623
39 2 9.6 3.2 0 -9.88091
40 4 11.2 4.8 1.6 -13.333
41 2 12.8 3.2 0 -9.90857
42 2 14.4 4.8 1.6 -9.85724
43 2 16 3.2 0 -9.90036
44 2 17.6 4.8 1.6 -9.81131
45 2 19.2 3.2 0 -9.88375
46 3 20.8 4.8 1.6 -11.235
47 4 22.4 3.2 0 -13.425
48 3 24 4.8 1.6 -11.3298
49 2 25.6 3.2 0 -9.8718
50 3 27.2 4.8 1.6 -11.2603
51 1 28.8 3.2 0 -11.7707
52 2 30.4 4.8 1.6 -9.78372
53 2 32 3.2 0 -9.81444
54 2 33.6 4.8 1.6 -9.91094
55 1 35.2 3.2 0 -11.7892
56 2 36.8 4.8 1.6 -9.80893
57 1 38.4 3.2 0 -11.7959
58 3 40 4.8 1.6 -11.199
59 1 41.6 3.2 0 -11.8414
60 3 43.2 4.8 1.6 -11.2732
61 1 44.8 3.2 0 -11.8415
62 3 46.4 4.8 1.6 -11.307
63 1 48 3.2 0 -11.8557
64 3 49.6 4.8 1.6 -11.3076
65 1 0 6.4 0 -11.7644
66 2 1.6 8 1.6 -9.86471
67 1 3.2 6.4 0 -11.773
68 2 4.8 8 1.6 -9.8737
69 2 6.4 6.4 0 -9.87688
70 2 8 8 1.6 -9.80521
71 2 9.6 6.4 0 -9.81986
72 1 11.2 8 1.6 -11.6775
73 2 12.8 6.4 0 -9.88694
74 2 14.4 8 1.6 -9.84365
75 4 16 6.4 0 -13.2762
76 2 17.6 8 1.6 -9.75143
77 1 19.2 6.4 0 -11.7834
78 3 20.8 8 1.6 -11.3563
79 1 22.4 6.4 0 -11.7971
80 3 24 8 1.6 -11.3832
81 1 25.6 6.4 0 -11.795
82 3 27.2 8 1.6 -11.2599
83 1 28.8 6.4 0 -11.734
84 2 30.4 8 1.6 -9.80845
85 2 32 6.4 0 -9.9161
86 3 33.6 8 1.6 -11.3674
87 2 35.2 6.4 0 -9.84632
88 2 36.8 8 1.6 -9.83955
89 1 38.4 6.4 0 -11.7673
90 2 40 8 1.6 -9.81893
91 1 41.6 6.4 0 -11.7912
92 2 43.2 8 1.6 -9.89277
93 1 44.8 6.4 0 -11.8287
94 3 46.4 8 1.6 -11.3326
95 1 48 6.4 0 -11.8553
96 3 49.6 8 1.6 -11.3009
97 1 0 9.6 0 -11.8251
98 2 1.6 11.2 1.6 -9.85302
99 2 3.2 9.6 0 -9.86175
100 2 4.8 11.2 1.6 -9.92302
101 4 6.4 9.6 0 -13.3634
102 2 8 11.2 1.6 -9.8571
103 4 9.6 9.6 0 -13.2488
104 2 11.2 11.2 1.6 -9.83252
105 2 12.8 9.6 0 -9.87352
106 2 14.4 11.2 1.6 -9.81027
107 2 16 9.6 0 -9.86213
108 2 17.6 11.2 1.6 -9.78453
109 2 19.2 9.6 0 -9.8854
110 3 20.8 11.2 1.6 -11.4176
111 2 22.4 9.6 0 -9.89066
112 4 24 11.2 1.6 -13.4354
113 4 25.6 9.6 0 -13.3527
114 2 27.2 11.2 1.6 -9.82911
115 1 28.8 9.6 0 -11.6822
116 2 30.4 11.2 1.6 -9.78047
117 2 32 9.6 0 -9.84454
118 2 33.6 11.2 1.6 -9.88198
119 4 35.2 9.6 0 -13.3461
120 2 36.8 11.2 1.6 -9.88032
121 4 38.4 9.6 0 -13.3054
122 2 40 11.2 1.6 -9.89448
123 2 41.6 9.6 0 -9.90315
124 2 43.2 11.2 1.6 -9.91204
125 2 44.8 9.6 0 -9.86314
126 2 46.4 11.2 1.6 -9.90721
127 1 48 9.6 0 -11.8174
128 2 49.6 11.2 1.6 -9.92808
129 2 0 12.8 0 -9.88744
130 1 1.6 14.4 1.6 -11.7973
131 2 3.2 12.8 0 -9.92385
132 2 4.8 14.4 1.6 -9.92838
133 2 6.4 12.8 0 -9.92062
134 2 8 14.4 1.6 -9.90621
135 2 9.6 12.8 0 -9.92075
136 2 11.2 14.4 1.6 -9.93689
137 2 12.8 12.8 0 -9.86187
138 2 14.4 14.4 1.6 -9.8363
139 1 16 12.8 0 -11.7529
140 2 17.6 14.4 1.6 -9.87704
141 4 19.2 12.8 0 -13.4163
142 2 20.8 14.4 1.6 -9.97572
143 2 22.4 12.8 0 -9.87471
144 2 24 14.4 1.6 -9.87667
145 2 25.6 12.8 0 -9.81086
146 2 27.2 14.4 1.6 -9.81739
147 1 28.8 12.8 0 -11.723
148 2 30.4 14.4 1.6 -9.85708
149 2 32 12.8 0 -9.89933
150 2 33.6 14.4 1.6 -9.90655
151 2 35.2 12.8 0 -9.88949
152 4 36.8 14.4 1.6 -13.4114
153 2 38.4 12.8 0 -9.91075
154 4 40 14.4 1.6 -13.4402
155 3 41.6 12.8 0 -11.3413
156 1 43.2 14.4 1.6 -11.805
157 2 44.8 12.8 0 -9.88234
158 2 46.4 14.4 1.6 -9.86591
159 2 48 12.8 0 -9.94139
160 3 49.6 14.4 1.6 -11.3829
161 2 0 16 0 -9.89117
162 2 1.6 17.6 1.6 -9.83568
163 2 3.2 16 0 -9.88215
164 2 4.8 17.6 1.6 -9.93691
165 2 6.4 16 0 -9.88083
166 4 8 17.6 1.6 -13.3283
167 2 9.6 16 0 -9.83712
168 4 11.2 17.6 1.6 -13.3633
169 2 12.8 16 0 -9.94175
170 4 14.4 17.6 1.6 -13.395
171 2 16 16 0 -9.90299
172 2 17.6 17.6 1.6 -9.90341
173 2 19.2 16 0 -9.96779
174 2 20.8 17.6 1.6 -9.9328
175 2 22.4 16 0 -9.91255
176 2 24 17.6 1.6 -9.89386
177 2 25.6 16 0 -9.8606
178 2 27.2 17.6 1.6 -9.88332
179 4 28.8 16 0 -13.3406
180 2 30.4 17.6 1.6 -9.89887
181 2 32 16 0 -9.92672
182 4 33.6 17.6 1.6 -13.398
183 2 35.2 16 0 -9.86381
184 4 36.8 17.6 1.6 -13.395
185 3 38.4 16 0 -11.3267
186 2 40 17.6 1.6 -9.80718
187 3 41.6 16 0 -11.2254
188 1 43.2 17.6 1.6 -11.7784
189 2 44.8 16 0 -9.74879
190 1 46.4 17.6 1.6 -11.8121
191 3 48 16 0 -11.344
192 1 49.6 17.6 1.6 -11.8419
193 2 0 19.2 0 -9.89018
194 2 1.6 20.8 1.6 -9.93207
195 2 3.2 19.2 0 -9.90577
196 2 4.8 20.8 1.6 -9.89872
197 2 6.4 19.2 0 -9.88409
198 2 8 20.8 1.6 -9.93563
199 4 9.6 19.2 0 -13.3369
200 2 11.2 20.8 1.6 -9.90469
201 2 12.8 19.2 0 -9.82779
202 2 14.4 20.8 1.6 -9.85339
203 2 16 19.2 0 -9.90869
204 1 17.6 20.8 1.6 -11.7582
205 2 19.2 19.2 0 -9.89254
206 2 20.8 20.8 1.6 -9.8414
207 1 22.4 19.2 0 -11.7853
208 2 24 20.8 1.6 -9.88431
209 2 25.6 19.2 0 -9.89214
210 2 27.2 20.8 1.6 -9.89711
211 2 28.8 19.2 0 -9.90065
212 4 30.4 20.8 1.6 -13.4467
213 3 32 19.2 0 -11.4069
214 4 33.6 20.8 1.6 -13.3776
215 3 35.2 19.2 0 -11.2704
216 1 36.8 20.8 1.6 -11.8691
217 3 38.4 19.2 0 -11.303
218 1 40 20.8 1.6 -11.856
219 2 41.6 19.2 0 -9.7728
220 1 43.2 20.8 1.6 -11.784
221 2 44.8 19.2 0 -9.74261
222 4 46.4 20.8 1.6 -13.3763
223 3 48 19.2 0 -11.2951
224 4 49.6 20.8 1.6 -13.3691
225 3 0 22.4 0 -11.3672
226 2 1.6 24 1.6 -9.91716
227 2 3.2 22.4 0 -9.96233
228 4 4.8 24 1.6 -13.3954
229 2 6.4 22.4 0 -9.91071
230 2 8 24 1.6 -9.85541
231 2 9.6 22.4 0 -9.87676
232 2 11.2 24 1.6 -9.84224
233 1 12.8 22.4 0 -11.7744
234 2 14.4 24 1.6 -9.83828
235 2 16 22.4 0 -9.88238
236 2 17.6 24 1.6 -9.89534
237 2 19.2 22.4 0 -9.91015
238 2 20.8 24 1.6 -9.92068
239 2 22.4 22.4 0 -9.83449
240 2 24 24 1.6 -9.87676
241 2 25.6 22.4 0 -9.88251
242 1 27.2 24 1.6 -11.7568
243 2 28.8 22.4 0 -9.88657
244 1 30.4 24 1.6 -11.8424
245 3 32 22.4 0 -11.3605
246 1 33.6 24 1.6 -11.8266
247 3 35.2 22.4 0 -11.3643
248 2 36.8 24 1.6 -9.8063
249 3 38.4 22.4 0 -11.3914
250 4 40 24 1.6 -13.3949
251 3 41.6 22.4 0 -11.2687
252 4 43.2 24 1.6 -13.3499
253 3 44.8 22.4 0 -11.301
254 4 46.4 24 1.6 -13.4012
255 3 48 22.4 0 -11.3652
256 1 49.6 24 1.6 -11.7895
257 2 0 25.6 0 -9.92789
259 3 3.2 25.6 0 -11.4279
261 2 6.4 25.6 0 -9.86786
263 2 9.6 25.6 0 -9.87693
265 1 12.8 25.6 0 -11.7205
267 4 16 25.6 0 -13.3418
269 2 19.2 25.6 0 -9.94469
271 2 22.4 25.6 0 -9.95128
273 2 25.6 25.6 0 -9.79646
275 2 28.8 25.6 0 -9.71854
277 3 32 25.6 0 -11.1996
279 2 35.2 25.6 0 -9.80561
281 2 38.4 25.6 0 -9.83159
283 2 41.6 25.6 0 -9.86761
285 3 44.8 25.6 0 -11.357
287 3 48 25.6 0 -11.3264
258 2 1.6 27.2 1.6 -9.97256
289 2 0 28.8 0 -9.91653
260 2 4.8 27.2 1.6 -9.9173
291 2 3.2 28.8 0 -9.9366
262 2 8 27.2 1.6 -9.92299
293 2 6.4 28.8 0 -9.92787
264 2 11.2 27.2 1.6 -9.90595
295 2 9.6 28.8 0 -9.93564
266 2 14.4 27.2 1.6 -9.87526
297 2 12.8 28.8 0 -9.88713
268 4 17.6 27.2 1.6 -13.3986
299 3 16 28.8 0 -11.3355
270 2 20.8 27.2 1.6 -9.93835
301 3 19.2 28.8 0 -11.426
272 3 24 27.2 1.6 -11.478
303 3 22.4 28.8 0 -11.5306
305 3 25.6 28.8 0 -11.4214
274 1 27.2 27.2 1.6 -11.7955
307 3 28.8 28.8 0 -11.2358
276 1 30.4 27.2 1.6 -11.8121
309 3 32 28.8 0 -11.2426
278 1 33.6 27.2 1.6 -11.7804
311 3 35.2 28.8 0 -11.2048
280 1 36.8 27.2 1.6 -11.7632
313 3 38.4 28.8 0 -11.1977
282 1 40 27.2 1.6 -11.7592
315 3 41.6 28.8 0 -11.2849
284 1 43.2 27.2 1.6 -11.8275
317 2 44.8 28.8 0 -9.91976
286 2 46.4 27.2 1.6 -9.90524
319 2 48 28.8 0 -9.88225
288 2 49.6 27.2 1.6 -9.88397
290 3 1.6 30.4 1.6 -11.4101
321 2 0 32 0 -9.81911
292 3 4.8 30.4 1.6 -11.3817
323 1 3.2 32 0 -11.8471
294 2 8 30.4 1.6 -9.85865
325 1 6.4 32 0 -11.7411
296 4 11.2 30.4 1.6 -13.2766
327 4 9.6 32 0 -13.2925
298 1 14.4 30.4 1.6 -11.7121
329 2 12.8 32 0 -9.84701
300 1 17.6 30.4 1.6 -11.8059
331 2 16 32 0 -9.90731
302 1 20.8 30.4 1.6 -11.8837
333 2 19.2 32 0 -9.86744
304 2 24 30.4 1.6 -9.85998
335 3 22.4 32 0 -11.3534
337 2 25.6 32 0 -9.85842
306 1 27.2 30.4 1.6 -11.8418
339 3 28.8 32 0 -11.3049
308 1 30.4 30.4 1.6 -11.8414
341 3 32 32 0 -11.2417
310 1 33.6 30.4 1.6 -11.8556
343 3 35.2 32 0 -11.1642
312 1 36.8 30.4 1.6 -11.8015
345 2 38.4 32 0 -9.80973
314 4 40 30.4 1.6 -13.3176
347 2 41.6 32 0 -9.8867
316 4 43.2 30.4 1.6 -13.3952
349 2 44.8 32 0 -9.88443
318 2 46.4 30.4 1.6 -9.90623
351 2 48 32 0 -9.91198
320 2 49.6 30.4 1.6 -9.92915
322 3 1.6 33.6 1.6 -11.3051
353 1 0 35.2 0 -11.8456
324 3 4.8 33.6 1.6 -11.307
355 4 3.2 35.2 0 -13.3066
326 3 8 33.6 1.6 -11.2696
357 1 6.4 35.2 0 -11.8377
328 3 11.2 33.6 1.6 -11.3165
359 4 9.6 35.2 0 -13.35
330 2 14.4 33.6 1.6 -9.88083
361 2 12.8 35.2 0 -9.93263
332 2 17.6 33.6 1.6 -9.88312
363 2 16 35.2 0 -9.89908
334 1 20.8 33.6 1.6 -11.8037
365 2 19.2 35.2 0 -9.92985
336 1 24 33.6 1.6 -11.7825
367 3 22.4 35.2 0 -11.2979
369 2 25.6 35.2 0 -9.75592
338 1 27.2 33.6 1.6 -11.7677
371 3 28.8 35.2 0 -11.2362
340 1 30.4 33.6 1.6 -11.8557
373 3 32 35.2 0 -11.2403
342 1 33.6 33.6 1.6 -11.8408
375 3 35.2 35.2 0 -11.3027
344 1 36.8 33.6 1.6 -11.7995
377 2 38.4 35.2 0 -9.87624
346 4 40 33.6 1.6 -13.341
379 4 41.6 35.2 0 -13.3522
348 2 43.2 33.6 1.6 -9.85958
381 1 44.8 35.2 0 -11.7937
350 2 46.4 33.6 1.6 -9.93119
383 2 48 35.2 0 -9.84341
352 3 49.6 33.6 1.6 -11.3528
354 2 1.6 36.8 1.6 -9.74077
385 1 0 38.4 0 -11.8256
356 3 4.8 36.8 1.6 -11.3066
387 1 3.2 38.4 0 -11.8418
358 3 8 36.8 1.6 -11.3362
389 4 6.4 38.4 0 -13.381
360 2 11.2 36.8 1.6 -9.89019
391 4 9.6 38.4 0 -13.4146
362 1 14.4 36.8 1.6 -11.773
393 2 12.8 38.4 0 -9.88763
364 2 17.6 36.8 1.6 -9.92838
395 2 16 38.4 0 -9.90812
366 2 20.8 36.8 1.6 -9.88525
397 2 19.2 38.4 0 -9.94163
368 1 24 36.8 1.6 -11.8344
399 2 22.4 38.4 0 -9.93479
401 2 25.6 38.4 0 -9.86227
370 1 27.2 36.8 1.6 -11.7965
403 2 28.8 38.4 0 -9.86134
372 4 30.4 36.8 1.6 -13.3329
405 2 32 38.4 0 -9.86017
374 1 33.6 36.8 1.6 -11.8167
407 2 35.2 38.4 0 -9.89176
376 2 36.8 36.8 1.6 -9.8734
409 4 38.4 38.4 0 -13.4216
378 2 40 36.8 1.6 -9.88526
411 1 41.6 38.4 0 -11.8197
380 2 43.2 36.8 1.6 -9.86156
413 1 44.8 38.4 0 -11.839
382 3 46.4 36.8 1.6 -11.3001
415 4 48 38.4 0 -13.4017
384 3 49.6 36.8 1.6 -11.3007
386 3 1.6 40 1.6 -11.2039
417 1 0 41.6 0 -11.8556
388 3 4.8 40 1.6 -11.2387
419 1 3.2 41.6 0 -11.8413
390 3 8 40 1.6 -11.3519
421 1 6.4 41.6 0 -11.8545
392 2 11.2 40 1.6 -9.96194
423 3 9.6 41.6 0 -11.4321
394 2 14.4 40 1.6 -9.86174
425 2 12.8 41.6 0 -9.88497
396 2 17.6 40 1.6 -9.9694
427 2 16 41.6 0 -9.881
398 2 20.8 40 1.6 -9.88604
429 2 19.2 41.6 0 -9.94332
400 2 24 40 1.6 -9.89943
431 2 22.4 41.6 0 -9.90059
433 4 25.6 41.6 0 -13.3601
402 2 27.2 40 1.6 -9.89211
435 4 28.8 41.6 0 -13.4549
404 2 30.4 40 1.6 -9.94629
437 3 32 41.6 0 -11.4077
406 4 33.6 40 1.6 -13.4227
439 3 35.2 41.6 0 -11.4586
408 4 36.8 40 1.6 -13.4426
441 2 38.4 41.6 0 -9.88125
410 2 40 40 1.6 -9.84398
443 1 41.6 41.6 0 -11.8274
412 3 43.2 40 1.6 -11.2343
445 4 44.8 41.6 0 -13.3645
414 3 46.4 40 1.6 -11.3091
447 1 48 41.6 0 -11.8836
416 3 49.6 40 1.6 -11.2756
418 3 1.6 43.2 1.6 -11.2417
449 1 0 44.8 0 -11.8415
420 3 4.8 43.2 1.6 -11.1645
451 1 3.2 44.8 0 -11.8557
422 2 8 43.2 1.6 -9.89463
453 1 6.4 44.8 0 -11.8025
424 4 11.2 43.2 1.6 -13.4056
455 3 9.6 44.8 0 -11.4034
426 4 14.4 43.2 1.6 -13.3099
457 2 12.8 44.8 0 -9.86936
428 2 17.6 43.2 1.6 -9.86981
459 2 16 44.8 0 -9.81881
430 4 20.8 43.2 1.6 -13.4222
461 4 19.2 44.8 0 -13.4001
432 2 24 43.2 1.6 -9.88817
463 4 22.4 44.8 0 -13.3903
465 2 25.6 44.8 0 -9.90032
434 2 27.2 43.2 1.6 -9.87788
467 3 28.8 44.8 0 -11.3137
436 2 30.4 43.2 1.6 -9.8989
469 4 32 44.8 0 -13.4653
438 4 33.6 43.2 1.6 -13.4925
471 2 35.2 44.8 0 -9.93927
440 2 36.8 43.2 1.6 -9.96382
473 4 38.4 44.8 0 -13.3738
442 2 40 43.2 1.6 -9.89036
475 1 41.6 44.8 0 -11.8312
444 3 43.2 43.2 1.6 -11.2708
477 1 44.8 44.8 0 -11.8556
446 3 46.4 43.2 1.6 -11.2756
479 1 48 44.8 0 -11.8415
448 3 49.6 43.2 1.6 -11.2414
450 3 1.6 46.4 1.6 -11.2753
481 1 0 48 0 -11.8414
452 3 4.8 46.4 1.6 -11.277
483 1 3.2 48 0 -11.8415
454 3 8 46.4 1.6 -11.2492
485 1 6.4 48 0 -11.7919
456 1 11.2 46.4 1.6 -11.7867
487 2 9.6 48 0 -9.90128
458 4 14.4 46.4 1.6 -13.3543
489 2 12.8 48 0 -9.93137
460 4 17.6 46.4 1.6 -13.4241
491 3 16 48 0 -11.407
462 2 20.8 46.4 1.6 -9.8907
493 2 19.2 48 0 -9.91392
464 2 24 46.4 1.6 -9.89348
495 2 22.4 48 0 -9.88455
497 2 25.6 48 0 -9.89821
466 1 27.2 46.4 1.6 -11.7787
499 2 28.8 48 0 -9.9463
468 2 30.4 46.4 1.6 -9.92058
501 4 32 48 0 -13.3702
470 3 33.6 46.4 1.6 -11.3626
503 4 35.2 48 0 -13.355
472 2 36.8 46.4 1.6 -9.8782
505 1 38.4 48 0 -11.7872
474 2 40 46.4 1.6 -9.78452
507 1 41.6 48 0 -11.8121
476 3 43.2 46.4 1.6 -11.2743
509 1 44.8 48 0 -11.8417
478 3 46.4 46.4 1.6 -11.2414
511 1 48 48 0 -11.8417
480 3 49.6 46.4 1.6 -11.2414
482 3 1.6 49.6 1.6 -11.3417
484 3 4.8 49.6 1.6 -11.2659
486 2 8 49.6 1.6 -9.91141
488 2 11.2 49.6 1.6 -9.93388
490 3 14.4 49.6 1.6 -11.3803
492 2 17.6 49.6 1.6 -9.92344
494 4 20.8 49.6 1.6 -13.3991
496 4 24 49.6 1.6 -13.3892
498 4 27.2 49.6 1.6 -13.3647
500 2 30.4 49.6 1.6 -9.93177
502 3 33.6 49.6 1.6 -11.366
504 3 36.8 49.6 1.6 -11.24
506 3 40 49.6 1.6 -11.2042
508 3 43.2 49.6 1.6 -11.2417
510 3 46.4 49.6 1.6 -11.2414
512 3 49.6 49.6 1.6 -11.2753
513 4 0 0 3.2 -13.3639
514 3 1.6 1.6 4.8 -11.3055
515 1 3.2 0 3.2 -11.8702
516 3 4.8 1.6 4.8 -11.2645
517 1 6.4 0 3.2 -11.8399
518 2 8 1.6 4.8 -9.9141
519 2 9.6 0 3.2 -9.90521
520 2 11.2 1.6 4.8 -9.97719
521 2 12.8 0 3.2 -9.9585
522 2 14.4 1.6 4.8 -9.90625
523 4 16 0 3.2 -13.3914
524 3 17.6 1.6 4.8 -11.3511
525 4 19.2 0 3.2 -13.4571
526 3 20.8 1.6 4.8 -11.4044
527 3 22.4 0 3.2 -11.361
528 2 24 1.6 4.8 -9.96445
529 2 25.6 0 3.2 -9.94974
530 3 27.2 1.6 4.8 -11.3877
531 2 28.8 0 3.2 -9.89588
532 3 30.4 1.6 4.8 -11.297
533 2 32 0 3.2 -9.82126
534 3 33.6 1.6 4.8 -11.4216
535 1 35.2 0 3.2 -11.8932
536 3 36.8 1.6 4.8 -11.4452
537 1 38.4 0 3.2 -11.8676
538 3 40 1.6 4.8 -11.3014
539 1 41.6 0 3.2 -11.8413
540 3 43.2 1.6 4.8 -11.2761
541 1 44.8 0 3.2 -11.8417
542 3 46.4 1.6 4.8 -11.2414
543 1 48 0 3.2 -11.8558
544 3 49.6 1.6 4.8 -11.2756
545 1 0 3.2 3.2 -11.8574
546 2 1.6 4.8 4.8 -9.86651
547 4 3.2 3.2 3.2 -13.3785
548 2 4.8 4.8 4.8 -9.91403
549 2 6.4 3.2 3.2 -9.87432
550 2 8 4.8 4.8 -9.94094
551 2 9.6 3.2 3.2 -9.957
552 2 11.2 4.8 4.8 -9.90773
553 2 12.8 3.2 3.2 -9.92192
554 4 14.4 4.8 4.8 -13.4051
555 4 16 3.2 3.2 -13.3438
556 3 17.6 4.8 4.8 -11.2264
557 1 19.2 3.2 3.2 -11.819
558 3 20.8 4.8 4.8 -11.3346
559 1 22.4 3.2 3.2 -11.8498
560 2 24 4.8 4.8 -9.87265
561 2 25.6 3.2 3.2 -9.8348
562 3 27.2 4.8 4.8 -11.3018
563 1 28.8 3.2 3.2 -11.8087
564 3 30.4 4.8 4.8 -11.3059
565 1 32 3.2 3.2 -11.8445
566 3 33.6 4.8 4.8 -11.3931
567 1 35.2 3.2 3.2 -11.8365
568 3 36.8 4.8 4.8 -11.3252
569 1 38.4 3.2 3.2 -11.8164
570 2 40 4.8 4.8 -9.86386
571 1 41.6 3.2 3.2 -11.8437
572 3 43.2 4.8 4.8 -11.3052
573 1 44.8 3.2 3.2 -11.8555
574 3 46.4 4.8 4.8 -11.3068
575 1 48 3.2 3.2 -11.8555
576 3 49.6 4.8 4.8 -11.2714
577 4 0 6.4 3.2 -13.3727
578 2 1.6 8 4.8 -9.87016
579 4 3.2 6.4 3.2 -13.3728
580 2 4.8 8 4.8 -9.8659
581 2 6.4 6.4 3.2 -9.90632
582 2 8 8 4.8 -9.85698
583 2 9.6 6.4 3.2 -9.8758
584 2 11.2 8 4.8 -9.87987
585 2 12.8 6.4 3.2 -9.85771
586 3 14.4 8 4.8 -11.2385
587 1 16 6.4 3.2 -11.7235
588 2 17.6 8 4.8 -9.77534
589 1 19.2 6.4 3.2 -11.7493
590 3 20.8 8 4.8 -11.3014
591 1 22.4 6.4 3.2 -11.8657
592 3 24 8 4.8 -11.4066
593 1 25.6 6.4 3.2 -11.8785
594 3 27.2 8 4.8 -11.5152
595 1 28.8 6.4 3.2 -11.8215
596 3 30.4 8 4.8 -11.3863
597 4 32 6.4 3.2 -13.3741
598 3 33.6 8 4.8 -11.3008
599 2 35.2 6.4 3.2 -9.84335
600 3 36.8 8 4.8 -11.3056
601 4 38.4 6.4 3.2 -13.3255
602 3 40 8 4.8 -11.266
603 4 41.6 6.4 3.2 -13.3536
604 3 43.2 8 4.8 -11.3267
605 4 44.8 6.4 3.2 -13.4017
606 3 46.4 8 4.8 -11.3657
607 4 48 6.4 3.2 -13.4021
608 3 49.6 8 4.8 -11.355
609 2 0 9.6 3.2 -9.85577
610 1 1.6 11.2 4.8 -11.7653
611 2 3.2 9.6 3.2 -9.8507
612 2 4.8 11.2 4.8 -9.83491
613 1 6.4 9.6 3.2 -11.7222
614 2 8 11.2 4.8 -9.8407
615 1 9.6 9.6 3.2 -11.6802
616 2 11.2 11.2 4.8 -9.86991
617 4 12.8 9.6 3.2 -13.253
618 2 14.4 11.2 4.8 -9.86429
619 1 16 9.6 3.2 -11.7169
620 2 17.6 11.2 4.8 -9.81131
621 1 19.2 9.6 3.2 -11.7864
622 3 20.8 11.2 4.8 -11.3749
623 2 22.4 9.6 3.2 -9.90486
624 2 24 11.2 4.8 -9.9546
625 3 25.6 9.6 3.2 -11.4021
626 3 27.2 11.2 4.8 -11.4125
627 1 28.8 9.6 3.2 -11.8184
628 3 30.4 11.2 4.8 -11.3504
629 1 32 9.6 3.2 -11.8047
630 2 33.6 11.2 4.8 -9.88381
631 1 35.2 9.6 3.2 -11.8171
632 3 36.8 11.2 4.8 -11.317
633 1 38.4 9.6 3.2 -11.7777
634 2 40 11.2 4.8 -9.88895
635 4 41.6 9.6 3.2 -13.3693
636 2 43.2 11.2 4.8 -9.88722
637 4 44.8 9.6 3.2 -13.3968
638 2 46.4 11.2 4.8 -9.88779
639 1 48 9.6 3.2 -11.8327
640 2 49.6 11.2 4.8 -9.88319
641 2 0 12.8 3.2 -9.90586
642 4 1.6 14.4 4.8 -13.3448
643 2 3.2 12.8 3.2 -9.8842
644 2 4.8 14.4 4.8 -9.92543
645 2 6.4 12.8 3.2 -9.92839
646 2 8 14.4 4.8 -9.90518
647 2 9.6 12.8 3.2 -9.88298
648 2 11.2 14.4 4.8 -9.94194
649 4 12.8 12.8 3.2 -13.3644
650 2 14.4 14.4 4.8 -9.89922
651 1 16 12.8 3.2 -11.6872
652 2 17.6 14.4 4.8 -9.89336
653 4 19.2 12.8 3.2 -13.3894
654 2 20.8 14.4 4.8 -9.93855
655 2 22.4 12.8 3.2 -9.95734
656 2 24 14.4 4.8 -9.9207
657 2 25.6 12.8 3.2 -9.90256
658 2 27.2 14.4 4.8 -9.8682
659 1 28.8 12.8 3.2 -11.7601
660 2 30.4 14.4 4.8 -9.87661
661 2 32 12.8 3.2 -9.89264
662 1 33.6 14.4 4.8 -11.8487
663 3 35.2 12.8 3.2 -11.3816
664 4 36.8 14.4 4.8 -13.4352
665 2 38.4 12.8 3.2 -9.92184
666 2 40 14.4 4.8 -9.84958
667 2 41.6 12.8 3.2 -9.90944
668 1 43.2 14.4 4.8 -11.7662
669 2 44.8 12.8 3.2 -9.88583
670 4 46.4 14.4 4.8 -13.3329
671 2 48 12.8 3.2 -9.93187
672 4 49.6 14.4 4.8 -13.4402
673 3 0 16 3.2 -11.3733
674 2 1.6 17.6 4.8 -9.91401
675 2 3.2 16 3.2 -9.90506
676 2 4.8 17.6 4.8 -9.89227
677 2 6.4 16 3.2 -9.91568
678 2 8 17.6 4.8 -9.8082
679 2 9.6 16 3.2 -9.92152
680 2 11.2 17.6 4.8 -9.91618
681 2 12.8 16 3.2 -9.92004
682 2 14.4 17.6 4.8 -9.92416
683 4 16 16 3.2 -13.3653
684 2 17.6 17.6 4.8 -9.91707
685 3 19.2 16 3.2 -11.42
686 4 20.8 17.6 4.8 -13.4154
687 2 22.4 16 3.2 -9.91244
688 2 24 17.6 4.8 -9.90474
689 1 25.6 16 3.2 -11.7924
690 2 27.2 17.6 4.8 -9.87026
691 4 28.8 16 3.2 -13.2829
692 4 30.4 17.6 4.8 -13.4269
693 2 32 16 3.2 -9.91267
694 1 33.6 17.6 4.8 -11.8286
695 3 35.2 16 3.2 -11.3256
696 1 36.8 17.6 4.8 -11.8415
697 3 38.4 16 3.2 -11.4128
698 1 40 17.6 4.8 -11.8421
699 3 41.6 16 3.2 -11.3312
700 1 43.2 17.6 4.8 -11.7742
701 3 44.8 16 3.2 -11.2663
702 4 46.4 17.6 4.8 -13.3188
703 3 48 16 3.2 -11.4045
704 4 49.6 17.6 4.8 -13.368
705 2 0 19.2 3.2 -9.90739
706 2 1.6 20.8 4.8 -9.92525
707 4 3.2 19.2 3.2 -13.419
708 2 4.8 20.8 4.8 -9.89298
709 2 6.4 19.2 3.2 -9.8935
710 2 8 20.8 4.8 -9.90168
711 2 9.6 19.2 3.2 -9.87819
712 2 11.2 20.8 4.8 -9.87691
713 2 12.8 19.2 3.2 -9.92848
714 4 14.4 20.8 4.8 -13.3126
715 2 16 19.2 3.2 -9.86855
716 1 17.6 20.8 4.8 -11.7529
717 2 19.2 19.2 3.2 -9.88756
718 2 20.8 20.8 4.8 -9.80842
719 4 22.4 19.2 3.2 -13.3107
720 2 24 20.8 4.8 -9.88108
721 2 25.6 19.2 3.2 -9.89343
722 4 27.2 20.8 4.8 -13.425
723 2 28.8 19.2 3.2 -9.93347
724 1 30.4 20.8 4.8 -11.8967
725 3 32 19.2 3.2 -11.3245
726 1 33.6 20.8 4.8 -11.8537
727 2 35.2 19.2 3.2 -9.82975
728 1 36.8 20.8 4.8 -11.7814
729 3 38.4 19.2 3.2 -11.3021
730 1 40 20.8 4.8 -11.8034
731 3 41.6 19.2 3.2 -11.2369
732 1 43.2 20.8 4.8 -11.7799
733 3 44.8 19.2 3.2 -11.229
734 2 46.4 20.8 4.8 -9.85105
735 2 48 19.2 3.2 -9.88868
736 2 49.6 20.8 4.8 -9.8862
737 2 0 22.4 3.2 -9.88498
738 2 1.6 24 4.8 -9.90013
739 4 3.2 22.4 3.2 -13.3659
740 2 4.8 24 4.8 -9.88715
741 2 6.4 22.4 3.2 -9.88952
742 2 8 24 4.8 -9.87807
743 2 9.6 22.4 3.2 -9.91828
744 1 11.2 24 4.8 -11.7314
745 2 12.8 22.4 3.2 -9.83802
746 1 14.4 24 4.8 -11.7585
747 2 16 22.4 3.2 -9.84363
748 2 17.6 24 4.8 -9.8397
749 2 19.2 22.4 3.2 -9.85887
750 2 20.8 24 4.8 -9.88513
751 1 22.4 22.4 3.2 -11.7924
752 2 24 24 4.8 -9.92181
753 2 25.6 22.4 3.2 -9.90626
754 2 27.2 24 4.8 -9.84341
755 3 28.8 22.4 3.2 -11.3546
756 4 30.4 24 4.8 -13.4011
757 3 32 22.4 3.2 -11.3397
758 1 33.6 24 4.8 -11.8252
759 3 35.2 22.4 3.2 -11.2713
760 1 36.8 24 4.8 -11.8212
761 3 38.4 22.4 3.2 -11.301
762 4 40 24 4.8 -13.3978
763 3 41.6 22.4 3.2 -11.2995
764 4 43.2 24 4.8 -13.3955
765 2 44.8 22.4 3.2 -9.89198
766 2 46.4 24 4.8 -9.83966
767 2 48 22.4 3.2 -9.86527
768 1 49.6 24 4.8 -11.7744
769 2 0 25.6 3.2 -9.88071
771 2 3.2 25.6 3.2 -9.89244
773 1 6.4 25.6 3.2 -11.7656
775 4 9.6 25.6 3.2 -13.3421
777 2 12.8 25.6 3.2 -9.83324
779 2 16 25.6 3.2 -9.86848
781 2 19.2 25.6 3.2 -9.9283
783 2 22.4 25.6 3.2 -9.89681
785 2 25.6 25.6 3.2 -9.94637
787 3 28.8 25.6 3.2 -11.265
789 3 32 25.6 3.2 -11.2381
791 2 35.2 25.6 3.2 -9.81389
793 2 38.4 25.6 3.2 -9.87436
795 3 41.6 25.6 3.2 -11.3129
797 2 44.8 25.6 3.2 -9.93462
799 2 48 25.6 3.2 -9.9046
770 2 1.6 27.2 4.8 -9.90793
801 4 0 28.8 3.2 -13.4213
772 2 4.8 27.2 4.8 -9.89726
803 4 3.2 28.8 3.2 -13.4402
774 2 8 27.2 4.8 -9.9086
805 2 6.4 28.8 3.2 -9.86329
776 2 11.2 27.2 4.8 -9.89087
807 2 9.6 28.8 3.2 -9.89406
778 2 14.4 27.2 4.8 -9.8588
809 2 12.8 28.8 3.2 -9.8733
780 1 17.6 27.2 4.8 -11.7687
811 2 16 28.8 3.2 -9.89578
782 4 20.8 27.2 4.8 -13.3763
813 3 19.2 28.8 3.2 -11.348
784 2 24 27.2 4.8 -9.86982
815 3 22.4 28.8 3.2 -11.4475
817 3 25.6 28.8 3.2 -11.3801
786 1 27.2 27.2 4.8 -11.8703
819 3 28.8 28.8 3.2 -11.2423
788 1 30.4 27.2 4.8 -11.8553
821 3 32 28.8 3.2 -11.2759
790 1 33.6 27.2 4.8 -11.8322
823 3 35.2 28.8 3.2 -11.2964
792 2 36.8 27.2 4.8 -9.85918
825 2 38.4 28.8 3.2 -9.84097
794 2 40 27.2 4.8 -9.89498
827 2 41.6 28.8 3.2 -9.88852
796 2 43.2 27.2 4.8 -9.87155
829 2 44.8 28.8 3.2 -9.8807
798 2 46.4 27.2 4.8 -9.94102
831 2 48 28.8 3.2 -9.9495
800 2 49.6 27.2 4.8 -9.89338
802 3 1.6 30.4 4.8 -11.3886
833 1 0 32 3.2 -11.8748
804 3 4.8 30.4 4.8 -11.3266
835 4 3.2 32 3.2 -13.377
806 2 8 30.4 4.8 -9.91407
837 1 6.4 32 3.2 -11.8545
808 2 11.2 30.4 4.8 -9.88283
839 1 9.6 32 3.2 -11.7739
810 2 14.4 30.4 4.8 -9.8548
841 1 12.8 32 3.2 -11.7357
812 2 17.6 30.4 4.8 -9.864
843 2 16 32 3.2 -9.85327
814 2 20.8 30.4 4.8 -9.84499
845 2 19.2 32 3.2 -9.88682
816 1 24 30.4 4.8 -11.8269
847 3 22.4 32 3.2 -11.3053
849 2 25.6 32 3.2 -9.77543
818 1 27.2 30.4 4.8 -11.8116
851 3 28.8 32 3.2 -11.2039
820 1 30.4 30.4 4.8 -11.8819
853 3 32 32 3.2 -11.2756
822 4 33.6 30.4 4.8 -13.3561
855 3 35.2 32 3.2 -11.3323
824 2 36.8 30.4 4.8 -9.88322
857 2 38.4 32 3.2 -9.86219
826 2 40 30.4 4.8 -9.88316
859 2 41.6 32 3.2 -9.92526
828 2 43.2 30.4 4.8 -9.88303
861 2 44.8 32 3.2 -9.91575
830 2 46.4 30.4 4.8 -9.92294
863 2 48 32 3.2 -9.89704
832 2 49.6 30.4 4.8 -9.946
834 3 1.6 33.6 4.8 -11.3034
865 1 0 35.2 3.2 -11.7509
836 3 4.8 33.6 4.8 -11.3973
867 1 3.2 35.2 3.2 -11.8515
838 3 8 33.6 4.8 -11.3326
869 4 6.4 35.2 3.2 -13.3799
840 3 11.2 33.6 4.8 -11.3833
871 1 9.6 35.2 3.2 -11.8706
842 2 14.4 33.6 4.8 -9.90193
873 2 12.8 35.2 3.2 -9.85657
844 2 17.6 33.6 4.8 -9.9188
875 2 16 35.2 3.2 -9.90162
846 1 20.8 33.6 4.8 -11.8596
877 2 19.2 35.2 3.2 -9.92608
848 1 24 33.6 4.8 -11.8251
879 3 22.4 35.2 3.2 -11.3325
881 3 25.6 35.2 3.2 -11.1996
850 1 27.2 33.6 4.8 -11.7828
883 3 28.8 35.2 3.2 -11.2387
852 1 30.4 33.6 4.8 -11.8114
885 3 32 35.2 3.2 -11.309
854 1 33.6 33.6 4.8 -11.8575
887 3 35.2 35.2 3.2 -11.387
856 2 36.8 33.6 4.8 -9.89586
889 2 38.4 35.2 3.2 -9.93199
858 2 40 33.6 4.8 -9.91568
891 2 41.6 35.2 3.2 -9.91313
860 2 43.2 33.6 4.8 -9.9765
893 4 44.8 35.2 3.2 -13.393
862 2 46.4 33.6 4.8 -9.92907
895 1 48 35.2 3.2 -11.8623
864 2 49.6 33.6 4.8 -9.84271
866 2 1.6 36.8 4.8 -9.74881
897 1 0 38.4 3.2 -11.781
868 3 4.8 36.8 4.8 -11.328
899 1 3.2 38.4 3.2 -11.7517
870 3 8 36.8 4.8 -11.3349
901 1 6.4 38.4 3.2 -11.8404
872 3 11.2 36.8 4.8 -11.3222
903 1 9.6 38.4 3.2 -11.8309
874 1 14.4 36.8 4.8 -11.7874
905 2 12.8 38.4 3.2 -9.8884
876 2 17.6 36.8 4.8 -9.92839
907 2 16 38.4 3.2 -9.90154
878 2 20.8 36.8 4.8 -9.88701
909 2 19.2 38.4 3.2 -9.9409
880 4 24 36.8 4.8 -13.4053
911 2 22.4 38.4 3.2 -9.9393
913 3 25.6 38.4 3.2 -11.3154
882 1 27.2 36.8 4.8 -11.8437
915 3 28.8 38.4 3.2 -11.4069
884 1 30.4 36.8 4.8 -11.8737
917 2 32 38.4 3.2 -9.9344
886 2 33.6 36.8 4.8 -9.83654
919 2 35.2 38.4 3.2 -9.96705
888 2 36.8 36.8 4.8 -9.95398
921 2 38.4 38.4 3.2 -9.88422
890 4 40 36.8 4.8 -13.4177
923 2 41.6 38.4 3.2 -9.8343
892 3 43.2 36.8 4.8 -11.3789
925 1 44.8 38.4 3.2 -11.8465
894 3 46.4 36.8 4.8 -11.3866
927 1 48 38.4 3.2 -11.8552
896 3 49.6 36.8 4.8 -11.1992
898 3 1.6 40 4.8 -11.1989
929 1 0 41.6 3.2 -11.8414
900 2 4.8 40 4.8 -9.81428
931 1 3.2 41.6 3.2 -11.8144
902 2 8 40 4.8 -9.84901
933 1 6.4 41.6 3.2 -11.7623
904 3 11.2 40 4.8 -11.367
935 2 9.6 41.6 3.2 -9.87234
906 2 14.4 40 4.8 -9.94932
937 2 12.8 41.6 3.2 -9.95094
908 2 17.6 40 4.8 -9.90621
939 2 16 41.6 3.2 -9.92054
910 1 20.8 40 4.8 -11.7924
941 2 19.2 41.6 3.2 -9.93257
912 2 24 40 4.8 -9.87558
943 2 22.4 41.6 3.2 -9.88428
945 1 25.6 41.6 3.2 -11.7903
914 2 27.2 40 4.8 -9.91665
947 2 28.8 41.6 3.2 -9.91958
916 2 30.4 40 4.8 -9.91848
949 3 32 41.6 3.2 -11.3979
918 2 33.6 40 4.8 -9.89456
951 3 35.2 41.6 3.2 -11.4537
920 2 36.8 40 4.8 -9.89192
953 2 38.4 41.6 3.2 -9.91868
922 4 40 40 4.8 -13.3412
955 1 41.6 41.6 3.2 -11.7742
924 2 43.2 40 4.8 -9.83762
957 1 44.8 41.6 3.2 -11.7934
926 3 46.4 40 4.8 -11.24
959 1 48 41.6 3.2 -11.8415
928 3 49.6 40 4.8 -11.2423
930 3 1.6 43.2 4.8 -11.2733
961 1 0 44.8 3.2 -11.8557
932 2 4.8 43.2 4.8 -9.83728
963 1 3.2 44.8 3.2 -11.8256
934 2 8 43.2 4.8 -9.85027
965 1 6.4 44.8 3.2 -11.7921
936 2 11.2 43.2 4.8 -9.92551
967 2 9.6 44.8 3.2 -9.87692
938 2 14.4 43.2 4.8 -9.87031
969 2 12.8 44.8 3.2 -9.85901
940 4 17.6 43.2 4.8 -13.4523
971 4 16 44.8 3.2 -13.372
942 2 20.8 43.2 4.8 -9.8714
973 3 19.2 44.8 3.2 -11.3455
944 2 24 43.2 4.8 -9.92305
975 2 22.4 44.8 3.2 -9.95692
977 2 25.6 44.8 3.2 -9.85897
946 2 27.2 43.2 4.8 -9.8348
979 2 28.8 44.8 3.2 -9.89291
948 1 30.4 43.2 4.8 -11.7653
981 2 32 44.8 3.2 -9.9029
950 1 33.6 43.2 4.8 -11.7961
983 3 35.2 44.8 3.2 -11.4024
952 2 36.8 43.2 4.8 -9.90252
985 2 38.4 44.8 3.2 -9.91315
954 2 40 43.2 4.8 -9.86208
987 2 41.6 44.8 3.2 -9.76424
956 2 43.2 43.2 4.8 -9.81422
989 1 44.8 44.8 3.2 -11.8422
958 3 46.4 43.2 4.8 -11.2036
991 1 48 44.8 3.2 -11.8416
960 3 49.6 43.2 4.8 -11.2756
962 3 1.6 46.4 4.8 -11.3087
993 1 0 48 3.2 -11.8697
964 3 4.8 46.4 4.8 -11.2659
995 4 3.2 48 3.2 -13.3639
966 2 8 46.4 4.8 -9.8963
997 1 6.4 48 3.2 -11.8292
968 2 11.2 46.4 4.8 -9.90477
999 4 9.6 48 3.2 -13.4064
970 2 14.4 46.4 4.8 -9.91439
1001 2 12.8 48 3.2 -9.9172
972 2 17.6 46.4 4.8 -9.90098
1003 2 16 48 3.2 -9.9239
974 2 20.8 46.4 4.8 -9.91183
1005 2 19.2 48 3.2 -9.90019
976 2 24 46.4 4.8 -9.89927
1007 2 22.4 48 3.2 -9.924
1009 2 25.6 48 3.2 -9.8639
978 1 27.2 46.4 4.8 -11.7409
1011 2 28.8 48 3.2 -9.86006
980 2 30.4 46.4 4.8 -9.8702
1013 4 32 48 3.2 -13.4491
982 2 33.6 46.4 4.8 -9.90738
1015 1 35.2 48 3.2 -11.8296
984 2 36.8 46.4 4.8 -9.88155
1017 1 38.4 48 3.2 -11.7607
986 4 40 46.4 4.8 -13.3194
1019 1 41.6 48 3.2 -11.8003
988 3 43.2 46.4 4.8 -11.2385
1021 1 44.8 48 3.2 -11.8414
990 3 46.4 46.4 4.8 -11.2417
1023 1 48 48 3.2 -11.8416
992 3 49.6 46.4 4.8 -11.2753
994 3 1.6 49.6 4.8 -11.3086
996 3 4.8 49.6 4.8 -11.3404
998 3 8 49.6 4.8 -11.3203
1000 3 11.2 49.6 4.8 -11.4079
1002 4 14.4 49.6 4.8 -13.4759
1004 2 17.6 49.6 4.8 -9.91755
1006 2 20.8 49.6 4.8 -9.90026
1008 2 24 49.6 4.8 -9.93253
1010 2 27.2 49.6 4.8 -9.89862
1012 2 30.4 49.6 4.8 -9.93463
1014 3 33.6 49.6 4.8 -11.3621
1016 3 36.8 49.6 4.8 -11.3585
1018 3 40 49.6 4.8 -11.2962
1020 3 43.2 49.6 4.8 -11.24
1022 3 46.4 49.6 4.8 -11.2417
1024 3 49.6 49.6 4.8 -11.2753
1025 1 0 0 6.4 -11.8557
1026 3 1.6 1.6 8 -11.3011
1027 1 3.2 0 6.4 -11.843
1028 2 4.8 1.6 8 -9.89574
1029 4 6.4 0 6.4 -13.3491
1030 2 8 1.6 8 -9.88607
1031 4 9.6 0 6.4 -13.4438
1032 2 11.2 1.6 8 -9.90048
1033 2 12.8 0 6.4 -9.91948
1034 2 14.4 1.6 8 -9.88427
1035 4 16 0 6.4 -13.4211
1036 2 17.6 1.6 8 -9.8667
1037 2 19.2 0 6.4 -9.852
1038 2 20.8 1.6 8 -9.86363
1039 2 22.4 0 6.4 -9.91014
1040 2 24 1.6 8 -9.81059
1041 2 25.6 0 6.4 -9.86158
1042 3 27.2 1.6 8 -11.1595
1043 1 28.8 0 6.4 -11.7864
1044 2 30.4 1.6 8 -9.75591
1045 1 32 0 6.4 -11.8327
1046 2 33.6 1.6 8 -9.91289
1047 2 35.2 0 6.4 -9.8795
1048 3 36.8 1.6 8 -11.3963
1049 2 38.4 0 6.4 -9.86054
1050 2 40 1.6 8 -9.86736
1051 1 41.6 0 6.4 -11.8336
1052 3 43.2 1.6 8 -11.2379
1053 1 44.8 0 6.4 -11.8121
1054 3 46.4 1.6 8 -11.242
1055 1 48 0 6.4 -11.8416
1056 3 49.6 1.6 8 -11.2039
1057 1 0 3.2 6.4 -11.8274
1058 3 1.6 4.8 8 -11.3547
1059 4 3.2 3.2 6.4 -13.3959
1060 2 4.8 4.8 8 -9.93021
1061 1 6.4 3.2 6.4 -11.7863
1062 2 8 4.8 8 -9.90246
1063 2 9.6 3.2 6.4 -9.89338
1064 4 11.2 4.8 8 -13.4202
1065 2 12.8 3.2 6.4 -9.94346
1066 2 14.4 4.8 8 -9.88393
1067 2 16 3.2 6.4 -9.83791
1068 3 17.6 4.8 8 -11.3343
1069 1 19.2 3.2 6.4 -11.8708
1070 3 20.8 4.8 8 -11.2954
1071 2 22.4 3.2 6.4 -9.8275
1072 2 24 4.8 8 -9.84178
1073 1 25.6 3.2 6.4 -11.787
1074 2 27.2 4.8 8 -9.83364
1075 1 28.8 3.2 6.4 -11.7994
1076 2 30.4 4.8 8 -9.83793
1077 4 32 3.2 6.4 -13.3191
1078 3 33.6 4.8 8 -11.2321
1079 2 35.2 3.2 6.4 -9.8474
1080 2 36.8 4.8 8 -9.91573
1081 4 38.4 3.2 6.4 -13.445
1082 3 40 4.8 8 -11.2918
1083 4 41.6 3.2 6.4 -13.3373
1084 3 43.2 4.8 8 -11.2387
1085 1 44.8 3.2 6.4 -11.8557
1086 3 46.4 4.8 8 -11.2426
1087 1 48 3.2 6.4 -11.8416
1088 3 49.6 4.8 8 -11.1648
1089 1 0 6.4 6.4 -11.8066
1090 2 1.6 8 8 -9.89224
1091 2 3.2 6.4 6.4 -9.85075
1092 2 4.8 8 8 -9.88806
1093 2 6.4 6.4 6.4 -9.88917
1094 2 8 8 8 -9.92065
1095 2 9.6 6.4 6.4 -9.95699
1096 2 11.2 8 8 -9.86865
1097 2 12.8 6.4 6.4 -9.90017
1098 4 14.4 8 8 -13.4352
1099 4 16 6.4 6.4 -13.4138
1100 3 17.6 8 8 -11.3114
1101 1 19.2 6.4 6.4 -11.8282
1102 2 20.8 8 8 -9.89461
1103 2 22.4 6.4 6.4 -9.81111
1104 2 24 8 8 -9.89408