ITEM: TIMESTEP
0
ITEM: NUMBER OF ATOMS
8192
ITEM: BOX BOUNDS pp pp pp
0.0000000000000000e+00 5.1200000000000003e+01
0.0000000000000000e+00 5.1200000000000003e+01
0.0000000000000000e+00 5.1200000000000003e+01
ITEM: ATOMS id type x y z c_eng
1 1 0 0 0 -11.8696
2 3 1.6 1.6 1.6 -11.2691
3 1 3.2 0 0 -11.8306
4 2 4.8 1.6 1.6 -9.86792
5 4 6.4 0 0 -13.446
6 2 8 1.6 1.6 -9.90291
7 3 9.6 0 0 -11.4204
8 2 11.2 1.6 1.6 -9.87242
9 4 12.8 0 0 -13.3964
10 2 14.4 1.6 1.6 -9.86568
11 2 16 0 0 -9.87817
12 2 17.6 1.6 1.6 -9.88487
13 2 19.2 0 0 -9.94769
14 2 20.8 1.6 1.6 -9.92596
15 2 22.4 0 0 -9.93871
16 2 24 1.6 1.6 -9.86517
17 4 25.6 0 0 -13.4045
18 2 27.2 1.6 1.6 -9.89479
19 2 28.8 0 0 -9.87126
20 3 30.4 1.6 1.6 -11.2919
21 4 32 0 0 -13.3814
22 3 33.6 1.6 1.6 -11.3357
23 1 35.2 0 0 -11.8835
24 3 36.8 1.6 1.6 -11.2361
25 1 38.4 0 0 -11.8415
26 3 40 1.6 1.6 -11.242
27 1 41.6 0 0 -11.8557
28 3 43.2 1.6 1.6 -11.2753
29 4 44.8 0 0 -13.4049
30 3 46.4 1.6 1.6 -11.3387
31 4 48 0 0 -13.3833
32 3 49.6 1.6 1.6 -11.3415
33 1 0 3.2 0 -11.8674
34 3 1.6 4.8 1.6 -11.294
35 2 3.2 3.2 0 -9.84581
36 2 4.8 4.8 1.6 -9.85899
37 2 6.4 3.2 0 -9.86299
38 1 8 4.8 1.6 -11.7438
39 3 9.6 3.2 0 -11.2476
40 1 11.2 4.8 1.6 -11.7346
41 2 12.8 3.2 0 -9.84118
42 2 14.4 4.8 1.6 -9.88742
43 2 16 3.2 0 -9.89354
44 2 17.6 4.8 1.6 -9.8886
45 2 19.2 3.2 0 -9.90933
46 2 20.8 4.8 1.6 -9.88438
47 2 22.4 3.2 0 -9.89225
48 2 24 4.8 1.6 -9.75752
49 2 25.6 3.2 0 -9.81269
50 3 27.2 4.8 1.6 -11.2021
51 1 28.8 3.2 0 -11.8115
52 3 30.4 4.8 1.6 -11.2411
53 4 32 3.2 0 -13.3758
54 3 33.6 4.8 1.6 -11.2982
55 4 35.2 3.2 0 -13.3545
56 2 36.8 4.8 1.6 -9.86453
57 1 38.4 3.2 0 -11.8154
58 3 40 4.8 1.6 -11.3344
59 1 41.6 3.2 0 -11.8679
60 3 43.2 4.8 1.6 -11.2735
61 1 44.8 3.2 0 -11.8553
62 3 46.4 4.8 1.6 -11.2756
63 1 48 3.2 0 -11.8697
64 3 49.6 4.8 1.6 -11.2761
65 1 0 6.4 0 -11.8604
66 2 1.6 8 1.6 -9.87034
67 2 3.2 6.4 0 -9.89503
68 2 4.8 8 1.6 -9.94344
69 2 6.4 6.4 0 -9.88112
70 2 8 8 1.6 -9.85685
71 2 9.6 6.4 0 -9.81279
72 2 11.2 8 1.6 -9.86486
73 2 12.8 6.4 0 -9.87206
74 3 14.4 8 1.6 -11.3608
75 4 16 6.4 0 -13.4219
76 4 17.6 8 1.6 -13.4434
77 2 19.2 6.4 0 -9.92854
78 3 20.8 8 1.6 -11.418
79 4 22.4 6.4 0 -13.3644
80 3 24 8 1.6 -11.2967
81 1 25.6 6.4 0 -11.8063
82 3 27.2 8 1.6 -11.3384
83 1 28.8 6.4 0 -11.8005
84 3 30.4 8 1.6 -11.2696
85 1 32 6.4 0 -11.8113
86 2 33.6 8 1.6 -9.86613
87 2 35.2 6.4 0 -9.87609
88 2 36.8 8 1.6 -9.89066
89 4 38.4 6.4 0 -13.4464
90 3 40 8 1.6 -11.3489
91 2 41.6 6.4 0 -9.81988
92 2 43.2 8 1.6 -9.8897
93 1 44.8 6.4 0 -11.8466
94 3 46.4 8 1.6 -11.2715
95 1 48 6.4 0 -11.8411
96 3 49.6 8 1.6 -11.1987
97 2 0 9.6 0 -9.86721
98 2 1.6 11.2 1.6 -9.89881
99 4 3.2 9.6 0 -13.4485
100 2 4.8 11.2 1.6 -9.91448
101 2 6.4 9.6 0 -9.86159
102 2 8 11.2 1.6 -9.92047
103 1 9.6 9.6 0 -11.7701
104 2 11.2 11.2 1.6 -9.86922
105 4 12.8 9.6 0 -13.3921
106 2 14.4 11.2 1.6 -9.90986
107 2 16 9.6 0 -9.9367
108 2 17.6 11.2 1.6 -9.95257
109 3 19.2 9.6 0 -11.4662
110 2 20.8 11.2 1.6 -9.9402
111 2 22.4 9.6 0 -9.90534
112 2 24 11.2 1.6 -9.88703
113 2 25.6 9.6 0 -9.8775
114 3 27.2 11.2 1.6 -11.4064
115 4 28.8 9.6 0 -13.446
116 3 30.4 11.2 1.6 -11.4087
117 2 32 9.6 0 -9.84818
118 2 33.6 11.2 1.6 -9.88347
119 2 35.2 9.6 0 -9.91577
120 2 36.8 11.2 1.6 -9.88095
121 2 38.4 9.6 0 -9.87746
122 2 40 11.2 1.6 -9.91653
123 2 41.6 9.6 0 -9.96019
124 2 43.2 11.2 1.6 -9.91423
125 2 44.8 9.6 0 -9.83998
126 2 46.4 11.2 1.6 -9.88578
127 1 48 9.6 0 -11.8462
128 2 49.6 11.2 1.6 -9.87754
129 3 0 12.8 0 -11.3675
130 1 1.6 14.4 1.6 -11.7437
131 2 3.2 12.8 0 -9.88475
132 4 4.8 14.4 1.6 -13.3359
133 4 6.4 12.8 0 -13.4237
134 2 8 14.4 1.6 -9.88303
135 2 9.6 12.8 0 -9.91745
136 2 11.2 14.4 1.6 -9.93667
137 2 12.8 12.8 0 -9.9001
138 2 14.4 14.4 1.6 -9.90004
139 2 16 12.8 0 -9.93942
140 2 17.6 14.4 1.6 -9.92629
141 2 19.2 12.8 0 -9.94958
142 2 20.8 14.4 1.6 -9.89084
143 2 22.4 12.8 0 -9.88721
144 4 24 14.4 1.6 -13.4172
145 2 25.6 12.8 0 -9.88435
146 3 27.2 14.4 1.6 -11.386
147 4 28.8 12.8 0 -13.4113
148 2 30.4 14.4 1.6 -9.9307
149 2 32 12.8 0 -9.91658
150 4 33.6 14.4 1.6 -13.4213
151 2 35.2 12.8 0 -9.95293
152 4 36.8 14.4 1.6 -13.3892
153 2 38.4 12.8 0 -9.9518
154 4 40 14.4 1.6 -13.4227
155 3 41.6 12.8 0 -11.4002
156 4 43.2 14.4 1.6 -13.3608
157 2 44.8 12.8 0 -9.95185
158 4 46.4 14.4 1.6 -13.3934
159 2 48 12.8 0 -9.907
160 1 49.6 14.4 1.6 -11.8196
161 3 0 16 0 -11.3305
162 4 1.6 17.6 1.6 -13.3658
163 2 3.2 16 0 -9.84449
164 4 4.8 17.6 1.6 -13.3622
165 2 6.4 16 0 -9.84538
166 1 8 17.6 1.6 -11.7754
167 2 9.6 16 0 -9.92608
168 2 11.2 17.6 1.6 -9.89401
169 3 12.8 16 0 -11.3281
170 2 14.4 17.6 1.6 -9.94979
171 2 16 16 0 -9.93128
172 2 17.6 17.6 1.6 -9.87154
173 2 19.2 16 0 -9.94945
174 2 20.8 17.6 1.6 -9.8539
175 2 22.4 16 0 -9.88099
176 2 24 17.6 1.6 -9.83586
177 2 25.6 16 0 -9.85148
178 2 27.2 17.6 1.6 -9.93016
179 1 28.8 16 0 -11.8175
180 2 30.4 17.6 1.6 -9.88907
181 2 32 16 0 -9.86501
182 4 33.6 17.6 1.6 -13.373
183 3 35.2 16 0 -11.3873
184 4 36.8 17.6 1.6 -13.4578
185 3 38.4 16 0 -11.3885
186 2 40 17.6 1.6 -9.92104
187 3 41.6 16 0 -11.36
188 2 43.2 17.6 1.6 -9.82451
189 3 44.8 16 0 -11.3887
190 4 46.4 17.6 1.6 -13.4206
191 3 48 16 0 -11.3932
192 4 49.6 17.6 1.6 -13.4451
193 3 0 19.2 0 -11.4614
194 2 1.6 20.8 1.6 -9.93287
195 2 3.2 19.2 0 -9.93859
196 3 4.8 20.8 1.6 -11.3993
197 2 6.4 19.2 0 -9.9171
198 2 8 20.8 1.6 -9.92304
199 2 9.6 19.2 0 -9.90654
200 2 11.2 20.8 1.6 -9.92305
201 4 12.8 19.2 0 -13.3969
202 2 14.4 20.8 1.6 -9.8581
203 2 16 19.2 0 -9.9369
204 4 17.6 20.8 1.6 -13.4479
205 2 19.2 19.2 0 -9.8701
206 2 20.8 20.8 1.6 -9.83579
207 1 22.4 19.2 0 -11.7228
208 2 24 20.8 1.6 -9.83712
209 1 25.6 19.2 0 -11.7577
210 2 27.2 20.8 1.6 -9.86687
211 2 28.8 19.2 0 -9.86992
212 4 30.4 20.8 1.6 -13.4299
213 2 32 19.2 0 -9.88722
214 1 33.6 20.8 1.6 -11.8832
215 3 35.2 19.2 0 -11.2978
216 2 36.8 20.8 1.6 -9.84478
217 3 38.4 19.2 0 -11.4143
218 2 40 20.8 1.6 -9.91715
219 2 41.6 19.2 0 -9.88403
220 1 43.2 20.8 1.6 -11.8214
221 3 44.8 19.2 0 -11.3019
222 4 46.4 20.8 1.6 -13.4059
223 3 48 19.2 0 -11.3934
224 2 49.6 20.8 1.6 -9.9033
225 3 0 22.4 0 -11.4264
226 4 1.6 24 1.6 -13.4388
227 2 3.2 22.4 0 -9.97254
228 2 4.8 24 1.6 -9.90893
229 2 6.4 22.4 0 -9.91741
230 2 8 24 1.6 -9.84335
231 2 9.6 22.4 0 -9.88301
232 2 11.2 24 1.6 -9.83571
233 1 12.8 22.4 0 -11.7582
234 2 14.4 24 1.6 -9.88104
235 2 16 22.4 0 -9.91563
236 2 17.6 24 1.6 -9.93969
237 2 19.2 22.4 0 -9.96507
238 2 20.8 24 1.6 -9.91812
239 2 22.4 22.4 0 -9.87
240 3 24 24 1.6 -11.3477
241 2 25.6 22.4 0 -9.91627
242 4 27.2 24 1.6 -13.4522
243 2 28.8 22.4 0 -9.92826
244 4 30.4 24 1.6 -13.4567
245 3 32 22.4 0 -11.3743
246 3 33.6 24 1.6 -11.29
247 2 35.2 22.4 0 -9.86117
248 1 36.8 24 1.6 -11.8283
249 3 38.4 22.4 0 -11.3507
250 2 40 24 1.6 -9.90668
251 3 41.6 22.4 0 -11.3254
252 4 43.2 24 1.6 -13.3828
253 3 44.8 22.4 0 -11.3102
254 1 46.4 24 1.6 -11.8634
255 3 48 22.4 0 -11.3637
256 2 49.6 24 1.6 -9.85303
257 2 0 25.6 0 -9.84321
259 2 3.2 25.6 0 -9.89244
261 4 6.4 25.6 0 -13.337
263 1 9.6 25.6 0 -11.7596
265 1 12.8 25.6 0 -11.7374
267 2 16 25.6 0 -9.93495
269 3 19.2 25.6 0 -11.3976
271 2 22.4 25.6 0 -9.90348
273 2 25.6 25.6 0 -9.93124
275 2 28.8 25.6 0 -9.91479
277 3 32 25.6 0 -11.3586
279 3 35.2 25.6 0 -11.2681
281 2 38.4 25.6 0 -9.83614
283 2 41.6 25.6 0 -9.8878
285 3 44.8 25.6 0 -11.2707
287 3 48 25.6 0 -11.274
258 2 1.6 27.2 1.6 -9.85691
289 2 0 28.8 0 -9.81594
260 3 4.8 27.2 1.6 -11.3498
291 2 3.2 28.8 0 -9.8497
262 2 8 27.2 1.6 -9.84545
293 4 6.4 28.8 0 -13.3702
264 2 11.2 27.2 1.6 -9.90162
295 2 9.6 28.8 0 -9.84307
266 2 14.4 27.2 1.6 -9.90749
297 2 12.8 28.8 0 -9.9002
268 4 17.6 27.2 1.6 -13.4132
299 2 16 28.8 0 -9.85984
270 2 20.8 27.2 1.6 -9.9326
301 2 19.2 28.8 0 -9.92966
272 2 24 27.2 1.6 -9.94266
303 2 22.4 28.8 0 -9.90199
305 2 25.6 28.8 0 -9.91957
274 4 27.2 27.2 1.6 -13.377
307 3 28.8 28.8 0 -11.2605
276 1 30.4 27.2 1.6 -11.8162
309 3 32 28.8 0 -11.3096
278 1 33.6 27.2 1.6 -11.8937
311 3 35.2 28.8 0 -11.2764
280 1 36.8 27.2 1.6 -11.8034
313 3 38.4 28.8 0 -11.2634
282 2 40 27.2 1.6 -9.89103
315 3 41.6 28.8 0 -11.3831
284 4 43.2 27.2 1.6 -13.4399
317 3 44.8 28.8 0 -11.3816
286 4 46.4 27.2 1.6 -13.3732
319 3 48 28.8 0 -11.3559
288 1 49.6 27.2 1.6 -11.7582
290 3 1.6 30.4 1.6 -11.2935
321 2 0 32 0 -9.87218
292 3 4.8 30.4 1.6 -11.269
323 1 3.2 32 0 -11.8125
294 2 8 30.4 1.6 -9.86421
325 1 6.4 32 0 -11.7794
296 2 11.2 30.4 1.6 -9.92055
327 2 9.6 32 0 -9.83801
298 2 14.4 30.4 1.6 -9.89798
329 2 12.8 32 0 -9.8498
300 4 17.6 30.4 1.6 -13.3386
331 4 16 32 0 -13.3664
302 2 20.8 30.4 1.6 -9.86024
333 2 19.2 32 0 -9.86947
304 2 24 30.4 1.6 -9.8839
335 2 22.4 32 0 -9.88743
337 2 25.6 32 0 -9.91289
306 1 27.2 30.4 1.6 -11.8175
339 3 28.8 32 0 -11.3584
308 1 30.4 30.4 1.6 -11.8393
341 3 32 32 0 -11.3683
310 4 33.6 30.4 1.6 -13.3645
343 3 35.2 32 0 -11.2341
312 1 36.8 30.4 1.6 -11.8168
345 2 38.4 32 0 -9.89059
314 2 40 30.4 1.6 -9.88538
347 2 41.6 32 0 -9.93399
316 2 43.2 30.4 1.6 -9.90839
349 2 44.8 32 0 -9.8897
318 2 46.4 30.4 1.6 -9.92511
351 2 48 32 0 -9.92375
320 2 49.6 30.4 1.6 -9.85914
322 3 1.6 33.6 1.6 -11.3312
353 1 0 35.2 0 -11.8826
324 3 4.8 33.6 1.6 -11.2395
355 1 3.2 35.2 0 -11.7967
326 3 8 33.6 1.6 -11.318
357 1 6.4 35.2 0 -11.8676
328 2 11.2 33.6 1.6 -9.95199
359 2 9.6 35.2 0 -9.82129
330 2 14.4 33.6 1.6 -9.90975
361 1 12.8 35.2 0 -11.7985
332 2 17.6 33.6 1.6 -9.92729
363 2 16 35.2 0 -9.9003
334 1 20.8 33.6 1.6 -11.7653
365 2 19.2 35.2 0 -9.90005
336 1 24 33.6 1.6 -11.8195
367 2 22.4 35.2 0 -9.82
369 3 25.6 35.2 0 -11.3556
338 1 27.2 33.6 1.6 -11.8544
371 3 28.8 35.2 0 -11.3611
340 1 30.4 33.6 1.6 -11.8675
373 3 32 35.2 0 -11.2698
342 1 33.6 33.6 1.6 -11.8113
375 2 35.2 35.2 0 -9.81657
344 1 36.8 33.6 1.6 -11.7652
377 2 38.4 35.2 0 -9.85505
346 4 40 33.6 1.6 -13.3989
379 4 41.6 35.2 0 -13.3561
348 2 43.2 33.6 1.6 -9.86875
381 1 44.8 35.2 0 -11.7758
350 3 46.4 33.6 1.6 -11.3287
383 4 48 35.2 0 -13.353
352 3 49.6 33.6 1.6 -11.3826
354 2 1.6 36.8 1.6 -9.80497
385 1 0 38.4 0 -11.7993
356 3 4.8 36.8 1.6 -11.2348
387 1 3.2 38.4 0 -11.8129
358 3 8 36.8 1.6 -11.4175
389 4 6.4 38.4 0 -13.36
360 2 11.2 36.8 1.6 -9.93931
391 1 9.6 38.4 0 -11.8887
362 4 14.4 36.8 1.6 -13.4121
393 2 12.8 38.4 0 -9.78081
364 3 17.6 36.8 1.6 -11.3914
395 2 16 38.4 0 -9.87488
366 1 20.8 36.8 1.6 -11.8039
397 2 19.2 38.4 0 -9.85386
368 2 24 36.8 1.6 -9.83336
399 2 22.4 38.4 0 -9.85923
401 2 25.6 38.4 0 -9.90709
370 4 27.2 36.8 1.6 -13.3766
403 2 28.8 38.4 0 -9.86269
372 1 30.4 36.8 1.6 -11.8182
405 3 32 38.4 0 -11.3158
374 4 33.6 36.8 1.6 -13.328
407 2 35.2 38.4 0 -9.89626
376 4 36.8 36.8 1.6 -13.3381
409 2 38.4 38.4 0 -9.87321
378 2 40 36.8 1.6 -9.87628
411 4 41.6 38.4 0 -13.3566
380 2 43.2 36.8 1.6 -9.83984
413 1 44.8 38.4 0 -11.7697
382 3 46.4 36.8 1.6 -11.2366
415 1 48 38.4 0 -11.8281
384 3 49.6 36.8 1.6 -11.3366
386 3 1.6 40 1.6 -11.2352
417 1 0 41.6 0 -11.8415
388 3 4.8 40 1.6 -11.3099
419 4 3.2 41.6 0 -13.3389
390 3 8 40 1.6 -11.3573
421 1 6.4 41.6 0 -11.8848
392 2 11.2 40 1.6 -9.90129
423 2 9.6 41.6 0 -9.84216
394 1 14.4 40 1.6 -11.7247
425 2 12.8 41.6 0 -9.84507
396 2 17.6 40 1.6 -9.90784
427 2 16 41.6 0 -9.86042
398 2 20.8 40 1.6 -9.85373
429 2 19.2 41.6 0 -9.94601
400 2 24 40 1.6 -9.95155
431 2 22.4 41.6 0 -9.90802
433 2 25.6 41.6 0 -9.833
402 2 27.2 40 1.6 -9.90607
435 4 28.8 41.6 0 -13.3963
404 2 30.4 40 1.6 -9.89311
437 2 32 41.6 0 -9.90593
406 4 33.6 40 1.6 -13.4295
439 2 35.2 41.6 0 -9.8819
408 1 36.8 40 1.6 -11.78
441 2 38.4 41.6 0 -9.84139
410 2 40 40 1.6 -9.86421
443 1 41.6 41.6 0 -11.7992
412 2 43.2 40 1.6 -9.75238
445 1 44.8 41.6 0 -11.8122
414 3 46.4 40 1.6 -11.2042
447 1 48 41.6 0 -11.8557
416 3 49.6 40 1.6 -11.2759
418 3 1.6 43.2 1.6 -11.3392
449 4 0 44.8 0 -13.3845
420 3 4.8 43.2 1.6 -11.3052
451 1 3.2 44.8 0 -11.8838
422 2 8 43.2 1.6 -9.89033
453 4 6.4 44.8 0 -13.3779
424 1 11.2 43.2 1.6 -11.7392
455 2 9.6 44.8 0 -9.87513
426 4 14.4 43.2 1.6 -13.2836
457 2 12.8 44.8 0 -9.82364
428 2 17.6 43.2 1.6 -9.89619
459 2 16 44.8 0 -9.88739
430 2 20.8 43.2 1.6 -9.95697
461 2 19.2 44.8 0 -9.92185
432 2 24 43.2 1.6 -9.87677
463 2 22.4 44.8 0 -9.88625
465 2 25.6 44.8 0 -9.8865
434 2 27.2 43.2 1.6 -9.88178
467 2 28.8 44.8 0 -9.87414
436 2 30.4 43.2 1.6 -9.9132
469 1 32 44.8 0 -11.7856
438 3 33.6 43.2 1.6 -11.3952
471 2 35.2 44.8 0 -9.90656
440 1 36.8 43.2 1.6 -11.8323
473 2 38.4 44.8 0 -9.83349
442 2 40 43.2 1.6 -9.8408
475 1 41.6 44.8 0 -11.8313
444 3 43.2 43.2 1.6 -11.201
477 1 44.8 44.8 0 -11.8557
446 3 46.4 43.2 1.6 -11.2759
479 4 48 44.8 0 -13.362
448 3 49.6 43.2 1.6 -11.3051
450 3 1.6 46.4 1.6 -11.2724
481 1 0 48 0 -11.8278
452 3 4.8 46.4 1.6 -11.3061
483 1 3.2 48 0 -11.8554
454 2 8 46.4 1.6 -9.86496
485 1 6.4 48 0 -11.8338
456 1 11.2 46.4 1.6 -11.7741
487 2 9.6 48 0 -9.90964
458 2 14.4 46.4 1.6 -9.82013
489 2 12.8 48 0 -9.83747
460 4 17.6 46.4 1.6 -13.3946
491 2 16 48 0 -9.91078
462 2 20.8 46.4 1.6 -9.91585
493 2 19.2 48 0 -9.94033
464 4 24 46.4 1.6 -13.4192
495 2 22.4 48 0 -9.97888
497 3 25.6 48 0 -11.4062
466 2 27.2 46.4 1.6 -9.93957
499 2 28.8 48 0 -9.92749
468 2 30.4 46.4 1.6 -9.86221
501 1 32 48 0 -11.7694
470 3 33.6 46.4 1.6 -11.314
503 1 35.2 48 0 -11.8037
472 2 36.8 46.4 1.6 -9.83196
505 1 38.4 48 0 -11.7877
474 2 40 46.4 1.6 -9.83638
507 1 41.6 48 0 -11.812
476 3 43.2 46.4 1.6 -11.2394
509 1 44.8 48 0 -11.8555
478 3 46.4 46.4 1.6 -11.2391
511 1 48 48 0 -11.8422
480 2 49.6 46.4 1.6 -9.82955
482 3 1.6 49.6 1.6 -11.2761
484 3 4.8 49.6 1.6 -11.2707
486 2 8 49.6 1.6 -9.94429
488 2 11.2 49.6 1.6 -9.92697
490 2 14.4 49.6 1.6 -9.90358
492 2 17.6 49.6 1.6 -9.90371
494 3 20.8 49.6 1.6 -11.4184
496 4 24 49.6 1.6 -13.4493
498 4 27.2 49.6 1.6 -13.4446
500 2 30.4 49.6 1.6 -9.88424
502 3 33.6 49.6 1.6 -11.2371
504 3 36.8 49.6 1.6 -11.239
506 3 40 49.6 1.6 -11.2036
508 3 43.2 49.6 1.6 -11.2756
510 3 46.4 49.6 1.6 -11.307
512 3 49.6 49.6 1.6 -11.2713
513 4 0 0 3.2 -13.3394
514 2 1.6 1.6 4.8 -9.74088
515 1 3.2 0 3.2 -11.8151
516 3 4.8 1.6 4.8 -11.2572
517 4 6.4 0 3.2 -13.3748
518 2 8 1.6 4.8 -9.9275
519 2 9.6 0 3.2 -9.95685
520 4 11.2 1.6 4.8 -13.3893
521 2 12.8 0 3.2 -9.87685
522 2 14.4 1.6 4.8 -9.80891
523 1 16 0 3.2 -11.7241
524 3 17.6 1.6 4.8 -11.195
525 4 19.2 0 3.2 -13.3932
526 2 20.8 1.6 4.8 -9.85018
527 2 22.4 0 3.2 -9.85877
528 2 24 1.6 4.8 -9.82308
529 2 25.6 0 3.2 -9.85755
530 3 27.2 1.6 4.8 -11.3519
531 2 28.8 0 3.2 -9.90498
532 2 30.4 1.6 4.8 -9.91181
533 1 32 0 3.2 -11.7932
534 2 33.6 1.6 4.8 -9.84141
535 4 35.2 0 3.2 -13.3334
536 2 36.8 1.6 4.8 -9.83635
537 1 38.4 0 3.2 -11.8436
538 3 40 1.6 4.8 -11.2379
539 1 41.6 0 3.2 -11.8414
540 3 43.2 1.6 4.8 -11.2756
541 1 44.8 0 3.2 -11.8556
542 3 46.4 1.6 4.8 -11.2753
543 1 48 0 3.2 -11.8836
544 3 49.6 1.6 4.8 -11.2731
545 1 0 3.2 3.2 -11.809
546 2 1.6 4.8 4.8 -9.80706
547 1 3.2 3.2 3.2 -11.757
548 2 4.8 4.8 4.8 -9.88564
549 4 6.4 3.2 3.2 -13.3499
550 2 8 4.8 4.8 -9.80139
551 2 9.6 3.2 3.2 -9.83961
552 1 11.2 4.8 4.8 -11.7318
553 2 12.8 3.2 3.2 -9.83823
554 2 14.4 4.8 4.8 -9.88511
555 1 16 3.2 3.2 -11.7657
556 3 17.6 4.8 4.8 -11.2945
557 4 19.2 3.2 3.2 -13.3173
558 2 20.8 4.8 4.8 -9.84816
559 1 22.4 3.2 3.2 -11.7244
560 2 24 4.8 4.8 -9.78236
561 1 25.6 3.2 3.2 -11.7578
562 3 27.2 4.8 4.8 -11.33
563 1 28.8 3.2 3.2 -11.8312
564 3 30.4 4.8 4.8 -11.3028
565 1 32 3.2 3.2 -11.8272
566 3 33.6 4.8 4.8 -11.3033
567 1 35.2 3.2 3.2 -11.8163
568 3 36.8 4.8 4.8 -11.2692
569 1 38.4 3.2 3.2 -11.7992
570 3 40 4.8 4.8 -11.2732
571 1 41.6 3.2 3.2 -11.8555
572 3 43.2 4.8 4.8 -11.2759
573 1 44.8 3.2 3.2 -11.8556
574 3 46.4 4.8 4.8 -11.3089
575 4 48 3.2 3.2 -13.3639
576 3 49.6 4.8 4.8 -11.3006
577 1 0 6.4 3.2 -11.7754
578 2 1.6 8 4.8 -9.86566
579 4 3.2 6.4 3.2 -13.372
580 2 4.8 8 4.8 -9.87668
581 2 6.4 6.4 3.2 -9.88189
582 4 8 8 4.8 -13.4003
583 2 9.6 6.4 3.2 -9.79163
584 2 11.2 8 4.8 -9.88093
585 2 12.8 6.4 3.2 -9.88196
586 3 14.4 8 4.8 -11.362
587 4 16 6.4 3.2 -13.3861
588 2 17.6 8 4.8 -9.89661
589 2 19.2 6.4 3.2 -9.8632
590 3 20.8 8 4.8 -11.3491
591 1 22.4 6.4 3.2 -11.7812
592 3 24 8 4.8 -11.3281
593 1 25.6 6.4 3.2 -11.8089
594 3 27.2 8 4.8 -11.3284
595 1 28.8 6.4 3.2 -11.8677
596 3 30.4 8 4.8 -11.2751
597 1 32 6.4 3.2 -11.8273
598 3 33.6 8 4.8 -11.2013
599 4 35.2 6.4 3.2 -13.3597
600 3 36.8 8 4.8 -11.2354
601 4 38.4 6.4 3.2 -13.3584
602 3 40 8 4.8 -11.2002
603 1 41.6 6.4 3.2 -11.855
604 3 43.2 8 4.8 -11.2683
605 1 44.8 6.4 3.2 -11.8274
606 3 46.4 8 4.8 -11.3006
607 1 48 6.4 3.2 -11.8415
608 2 49.6 8 4.8 -9.83242
609 1 0 9.6 3.2 -11.7709
610 2 1.6 11.2 4.8 -9.83516
611 2 3.2 9.6 3.2 -9.84555
612 4 4.8 11.2 4.8 -13.4483
613 2 6.4 9.6 3.2 -9.9434
614 2 8 11.2 4.8 -9.90589
615 4 9.6 9.6 3.2 -13.3395
616 2 11.2 11.2 4.8 -9.86377
617 4 12.8 9.6 3.2 -13.355
618 2 14.4 11.2 4.8 -9.85022
619 4 16 9.6 3.2 -13.3717
620 2 17.6 11.2 4.8 -9.88962
621 2 19.2 9.6 3.2 -9.89503
622 2 20.8 11.2 4.8 -9.88792
623 1 22.4 9.6 3.2 -11.8477
624 2 24 11.2 4.8 -9.90726
625 1 25.6 9.6 3.2 -11.8305
626 2 27.2 11.2 4.8 -9.83899
627 1 28.8 9.6 3.2 -11.8404
628 3 30.4 11.2 4.8 -11.2587
629 1 32 9.6 3.2 -11.8137
630 2 33.6 11.2 4.8 -9.87896
631 1 35.2 9.6 3.2 -11.7495
632 2 36.8 11.2 4.8 -9.78524
633 1 38.4 9.6 3.2 -11.7762
634 2 40 11.2 4.8 -9.83123
635 1 41.6 9.6 3.2 -11.7786
636 2 43.2 11.2 4.8 -9.86312
637 4 44.8 9.6 3.2 -13.3738
638 2 46.4 11.2 4.8 -9.88577
639 1 48 9.6 3.2 -11.7429
640 2 49.6 11.2 4.8 -9.85731
641 2 0 12.8 3.2 -9.84121
642 1 1.6 14.4 4.8 -11.7752
643 2 3.2 12.8 3.2 -9.88859
644 2 4.8 14.4 4.8 -9.86127
645 3 6.4 12.8 3.2 -11.3781
646 4 8 14.4 4.8 -13.4454
647 2 9.6 12.8 3.2 -9.9139
648 2 11.2 14.4 4.8 -9.8834
649 1 12.8 12.8 3.2 -11.741
650 2 14.4 14.4 4.8 -9.86773
651 2 16 12.8 3.2 -9.83955
652 2 17.6 14.4 4.8 -9.84768
653 4 19.2 12.8 3.2 -13.3963
654 1 20.8 14.4 4.8 -11.7727
655 2 22.4 12.8 3.2 -9.859
656 2 24 14.4 4.8 -9.87594
657 2 25.6 12.8 3.2 -9.9167
658 2 27.2 14.4 4.8 -9.90214
659 4 28.8 12.8 3.2 -13.4153
660 2 30.4 14.4 4.8 -9.88067
661 2 32 12.8 3.2 -9.91627
662 2 33.6 14.4 4.8 -9.86306
663 2 35.2 12.8 3.2 -9.88672
664 1 36.8 14.4 4.8 -11.7796
665 2 38.4 12.8 3.2 -9.86298
666 2 40 14.4 4.8 -9.86501
667 2 41.6 12.8 3.2 -9.88743
668 1 43.2 14.4 4.8 -11.7688
669 2 44.8 12.8 3.2 -9.86185
670 4 46.4 14.4 4.8 -13.4134
671 2 48 12.8 3.2 -9.88673
672 2 49.6 14.4 4.8 -9.83847
673 2 0 16 3.2 -9.86179
674 2 1.6 17.6 4.8 -9.86486
675 2 3.2 16 3.2 -9.83849
676 2 4.8 17.6 4.8 -9.90269
677 2 6.4 16 3.2 -9.89122
678 2 8 17.6 4.8 -9.85666
679 2 9.6 16 3.2 -9.90585
680 2 11.2 17.6 4.8 -9.97714
681 4 12.8 16 3.2 -13.3885
682 3 14.4 17.6 4.8 -11.2754
683 1 16 16 3.2 -11.7643
684 1 17.6 17.6 4.8 -11.7829
685 2 19.2 16 3.2 -9.81354
686 1 20.8 17.6 4.8 -11.7385
687 2 22.4 16 3.2 -9.86682
688 2 24 17.6 4.8 -9.86467
689 2 25.6 16 3.2 -9.96823
690 2 27.2 17.6 4.8 -9.84764
691 2 28.8 16 3.2 -9.86149
692 4 30.4 17.6 4.8 -13.3575
693 2 32 16 3.2 -9.9346
694 1 33.6 17.6 4.8 -11.8448
695 3 35.2 16 3.2 -11.3279
696 1 36.8 17.6 4.8 -11.8463
697 2 38.4 16 3.2 -9.91093
698 2 40 17.6 4.8 -9.87612
699 2 41.6 16 3.2 -9.88606
700 1 43.2 17.6 4.8 -11.7531
701 2 44.8 16 3.2 -9.86833
702 4 46.4 17.6 4.8 -13.3879
703 3 48 16 3.2 -11.374
704 2 49.6 17.6 4.8 -9.93134
705 2 0 19.2 3.2 -9.93681
706 1 1.6 20.8 4.8 -11.828
707 2 3.2 19.2 3.2 -9.92631
708 2 4.8 20.8 4.8 -9.88994
709 2 6.4 19.2 3.2 -9.85129
710 2 8 20.8 4.8 -9.92089
711 2 9.6 19.2 3.2 -9.94097
712 2 11.2 20.8 4.8 -9.90523
713 2 12.8 19.2 3.2 -9.91485
714 1 14.4 20.8 4.8 -11.7998
715 2 16 19.2 3.2 -9.89241
716 2 17.6 20.8 4.8 -9.84715
717 2 19.2 19.2 3.2 -9.86696
718 2 20.8 20.8 4.8 -9.82374
719 1 22.4 19.2 3.2 -11.6843
720 2 24 20.8 4.8 -9.85437
721 2 25.6 19.2 3.2 -9.85316
722 1 27.2 20.8 4.8 -11.8244
723 2 28.8 19.2 3.2 -9.90962
724 1 30.4 20.8 4.8 -11.8416
725 3 32 19.2 3.2 -11.2984
726 1 33.6 20.8 4.8 -11.8685
727 3 35.2 19.2 3.2 -11.3958
728 4 36.8 20.8 4.8 -13.4615
729 3 38.4 19.2 3.2 -11.4434
730 2 40 20.8 4.8 -9.90602
731 2 41.6 19.2 3.2 -9.87651
732 1 43.2 20.8 4.8 -11.742
733 2 44.8 19.2 3.2 -9.84505
734 2 46.4 20.8 4.8 -9.8748
735 2 48 19.2 3.2 -9.95879
736 4 49.6 20.8 4.8 -13.4199
737 3 0 22.4 3.2 -11.4223
738 4 1.6 24 4.8 -13.4172
739 2 3.2 22.4 3.2 -9.90063
740 2 4.8 24 4.8 -9.90426
741 1 6.4 22.4 3.2 -11.7964
742 2 8 24 4.8 -9.85046
743 2 9.6 22.4 3.2 -9.93805
744 4 11.2 24 4.8 -13.4202
745 2 12.8 22.4 3.2 -9.88662
746 4 14.4 24 4.8 -13.3686
747 2 16 22.4 3.2 -9.88404
748 2 17.6 24 4.8 -9.922
749 2 19.2 22.4 3.2 -9.91569
750 2 20.8 24 4.8 -9.80807
751 1 22.4 22.4 3.2 -11.7493
752 2 24 24 4.8 -9.8895
753 2 25.6 22.4 3.2 -9.92703
754 1 27.2 24 4.8 -11.8557
755 3 28.8 22.4 3.2 -11.2973
756 1 30.4 24 4.8 -11.8249
757 3 32 22.4 3.2 -11.3962
758 1 33.6 24 4.8 -11.8473
759 3 35.2 22.4 3.2 -11.3649
760 1 36.8 24 4.8 -11.8313
761 2 38.4 22.4 3.2 -9.96859
762 2 40 24 4.8 -9.93944
763 2 41.6 22.4 3.2 -9.92937
764 2 43.2 24 4.8 -9.90649
765 3 44.8 22.4 3.2 -11.2811
766 2 46.4 24 4.8 -9.90942
767 2 48 22.4 3.2 -9.97502
768 2 49.6 24 4.8 -9.90521
769 2 0 25.6 3.2 -9.8854
771 2 3.2 25.6 3.2 -9.88105
773 1 6.4 25.6 3.2 -11.7767
775 2 9.6 25.6 3.2 -9.87019
777 2 12.8 25.6 3.2 -9.90014
779 2 16 25.6 3.2 -9.92334
781 2 19.2 25.6 3.2 -9.91542
783 1 22.4 25.6 3.2 -11.8031
785 3 25.6 25.6 3.2 -11.4229
787 3 28.8 25.6 3.2 -11.2693
789 3 32 25.6 3.2 -11.329
791 3 35.2 25.6 3.2 -11.335
793 2 38.4 25.6 3.2 -9.85881
795 2 41.6 25.6 3.2 -9.96206
797 2 44.8 25.6 3.2 -9.93119
799 2 48 25.6 3.2 -9.91009
770 2 1.6 27.2 4.8 -9.83454
801 1 0 28.8 3.2 -11.7263
772 3 4.8 27.2 4.8 -11.2924
803 1 3.2 28.8 3.2 -11.8412
774 2 8 27.2 4.8 -9.90888
805 1 6.4 28.8 3.2 -11.8031
776 2 11.2 27.2 4.8 -9.90619
807 2 9.6 28.8 3.2 -9.89713
778 2 14.4 27.2 4.8 -9.9369
809 2 12.8 28.8 3.2 -9.94949
780 2 17.6 27.2 4.8 -9.88013
811 4 16 28.8 3.2 -13.393
782 2 20.8 27.2 4.8 -9.90985
813 2 19.2 28.8 3.2 -9.90548
784 3 24 27.2 4.8 -11.386
815 2 22.4 28.8 3.2 -9.93634
817 3 25.6 28.8 3.2 -11.4047
786 1 27.2 27.2 4.8 -11.8618
819 2 28.8 28.8 3.2 -9.76901
788 1 30.4 27.2 4.8 -11.8234
821 3 32 28.8 3.2 -11.2378
790 1 33.6 27.2 4.8 -11.8251
823 3 35.2 28.8 3.2 -11.3057
792 4 36.8 27.2 4.8 -13.3531
825 2 38.4 28.8 3.2 -9.92783
794 2 40 27.2 4.8 -9.93478
827 3 41.6 28.8 3.2 -11.4199
796 2 43.2 27.2 4.8 -9.89913
829 2 44.8 28.8 3.2 -9.9009
798 2 46.4 27.2 4.8 -9.92072
831 2 48 28.8 3.2 -9.85737
800 2 49.6 27.2 4.8 -9.85371
802 3 1.6 30.4 4.8 -11.1993
833 4 0 32 3.2 -13.3625
804 3 4.8 30.4 4.8 -11.2438
835 1 3.2 32 3.2 -11.8271
806 3 8 30.4 4.8 -11.188
837 1 6.4 32 3.2 -11.7989
808 2 11.2 30.4 4.8 -9.92627
839 1 9.6 32 3.2 -11.798
810 2 14.4 30.4 4.8 -9.93685
841 2 12.8 32 3.2 -9.93805
812 2 17.6 30.4 4.8 -9.91449
843 2 16 32 3.2 -9.92158
814 4 20.8 30.4 4.8 -13.3622
845 2 19.2 32 3.2 -9.89089
816 4 24 30.4 4.8 -13.4157
847 2 22.4 32 3.2 -9.80925
849 3 25.6 32 3.2 -11.2698
818 1 27.2 30.4 4.8 -11.8252
851 3 28.8 32 3.2 -11.2039
820 1 30.4 30.4 4.8 -11.8257
853 3 32 32 3.2 -11.2761
822 1 33.6 30.4 4.8 -11.8411
855 3 35.2 32 3.2 -11.2668
824 4 36.8 30.4 4.8 -13.3835
857 2 38.4 32 3.2 -9.86575
826 2 40 30.4 4.8 -9.89857
859 2 41.6 32 3.2 -9.91558
828 2 43.2 30.4 4.8 -9.86744
861 1 44.8 32 3.2 -11.8132
830 2 46.4 30.4 4.8 -9.89525
863 1 48 32 3.2 -11.8089
832 2 49.6 30.4 4.8 -9.84554
834 2 1.6 33.6 4.8 -9.8899
865 2 0 35.2 3.2 -9.83615
836 3 4.8 33.6 4.8 -11.2612
867 1 3.2 35.2 3.2 -11.8074
838 2 8 33.6 4.8 -9.81085
869 4 6.4 35.2 3.2 -13.3825
840 2 11.2 33.6 4.8 -9.8345
871 2 9.6 35.2 3.2 -9.91013
842 4 14.4 33.6 4.8 -13.4439
873 3 12.8 35.2 3.2 -11.3637
844 2 17.6 33.6 4.8 -9.85731
875 3 16 35.2 3.2 -11.4888
846 1 20.8 33.6 4.8 -11.7482
877 3 19.2 35.2 3.2 -11.3435
848 1 24 33.6 4.8 -11.814
879 3 22.4 35.2 3.2 -11.2289
881 3 25.6 35.2 3.2 -11.3658
850 1 27.2 33.6 4.8 -11.8277
883 3 28.8 35.2 3.2 -11.2362
852 1 30.4 33.6 4.8 -11.8119
885 3 32 35.2 3.2 -11.2379
854 1 33.6 33.6 4.8 -11.8041
887 2 35.2 35.2 3.2 -9.8659
856 2 36.8 33.6 4.8 -9.84525
889 2 38.4 35.2 3.2 -9.86746
858 2 40 33.6 4.8 -9.88208
891 2 41.6 35.2 3.2 -9.90079
860 2 43.2 33.6 4.8 -9.94506
893 4 44.8 35.2 3.2 -13.3735
862 3 46.4 33.6 4.8 -11.343
895 1 48 35.2 3.2 -11.8841
864 2 49.6 33.6 4.8 -9.9156
866 2 1.6 36.8 4.8 -9.91016
897 4 0 38.4 3.2 -13.3803
868 2 4.8 36.8 4.8 -9.84288
899 1 3.2 38.4 3.2 -11.7994
870 2 8 36.8 4.8 -9.84052
901 1 6.4 38.4 3.2 -11.8112
872 3 11.2 36.8 4.8 -11.3588
903 2 9.6 38.4 3.2 -9.87514
874 2 14.4 36.8 4.8 -9.90404
905 2 12.8 38.4 3.2 -9.93327
876 4 17.6 36.8 4.8 -13.4333
907 2 16 38.4 3.2 -9.90765
878 1 20.8 36.8 4.8 -11.761
909 2 19.2 38.4 3.2 -9.88348
880 4 24 36.8 4.8 -13.3934
911 3 22.4 38.4 3.2 -11.3426
913 2 25.6 38.4 3.2 -9.92683
882 4 27.2 36.8 4.8 -13.3477
915 2 28.8 38.4 3.2 -9.88493
884 1 30.4 36.8 4.8 -11.7959
917 2 32 38.4 3.2 -9.87071
886 4 33.6 36.8 4.8 -13.3212
919 3 35.2 38.4 3.2 -11.3148
888 2 36.8 36.8 4.8 -9.88292
921 2 38.4 38.4 3.2 -9.9145
890 4 40 36.8 4.8 -13.3926
923 2 41.6 38.4 3.2 -9.84593
892 2 43.2 36.8 4.8 -9.88229
925 1 44.8 38.4 3.2 -11.7749
894 3 46.4 36.8 4.8 -11.3624
927 1 48 38.4 3.2 -11.8552
896 3 49.6 36.8 4.8 -11.3552
898 3 1.6 40 4.8 -11.3037
929 1 0 41.6 3.2 -11.87
900 3 4.8 40 4.8 -11.2715
931 1 3.2 41.6 3.2 -11.8551
902 2 8 40 4.8 -9.82005
933 1 6.4 41.6 3.2 -11.8343
904 2 11.2 40 4.8 -9.90432
935 2 9.6 41.6 3.2 -9.86701
906 4 14.4 40 4.8 -13.3341
937 2 12.8 41.6 3.2 -9.84227
908 4 17.6 40 4.8 -13.3337
939 2 16 41.6 3.2 -9.84024
910 1 20.8 40 4.8 -11.7842
941 2 19.2 41.6 3.2 -9.90239
912 2 24 40 4.8 -9.85064
943 2 22.4 41.6 3.2 -9.92309
945 1 25.6 41.6 3.2 -11.7733
914 2 27.2 40 4.8 -9.8811
947 2 28.8 41.6 3.2 -9.87178
916 2 30.4 40 4.8 -9.87059
949 4 32 41.6 3.2 -13.4234
918 4 33.6 40 4.8 -13.395
951 3 35.2 41.6 3.2 -11.4001
920 4 36.8 40 4.8 -13.4189
953 2 38.4 41.6 3.2 -9.86318
922 2 40 40 4.8 -9.87684
955 1 41.6 41.6 3.2 -11.7819
924 2 43.2 40 4.8 -9.81108
957 1 44.8 41.6 3.2 -11.7804
926 3 46.4 40 4.8 -11.2045
959 1 48 41.6 3.2 -11.8414
928 3 49.6 40 4.8 -11.2717
930 3 1.6 43.2 4.8 -11.2758
961 4 0 44.8 3.2 -13.362
932 3 4.8 43.2 4.8 -11.3321
963 1 3.2 44.8 3.2 -11.8697
934 2 8 43.2 4.8 -9.91409
965 4 6.4 44.8 3.2 -13.4011
936 2 11.2 43.2 4.8 -9.87696
967 2 9.6 44.8 3.2 -9.88109
938 4 14.4 43.2 4.8 -13.3092
969 2 12.8 44.8 3.2 -9.83986
940 2 17.6 43.2 4.8 -9.89892
971 4 16 44.8 3.2 -13.3386
942 2 20.8 43.2 4.8 -9.88423
973 4 19.2 44.8 3.2 -13.3914
944 2 24 43.2 4.8 -9.84361
975 2 22.4 44.8 3.2 -9.89348
977 2 25.6 44.8 3.2 -9.89342
946 2 27.2 43.2 4.8 -9.86006
979 2 28.8 44.8 3.2 -9.94173
948 4 30.4 43.2 4.8 -13.3664
981 2 32 44.8 3.2 -9.87539
950 2 33.6 43.2 4.8 -9.93766
983 3 35.2 44.8 3.2 -11.4413
952 2 36.8 43.2 4.8 -9.91381
985 2 38.4 44.8 3.2 -9.91223
954 2 40 43.2 4.8 -9.95071
987 4 41.6 44.8 3.2 -13.3544
956 3 43.2 43.2 4.8 -11.3023
989 1 44.8 44.8 3.2 -11.8556
958 3 46.4 43.2 4.8 -11.2417
991 1 48 44.8 3.2 -11.8439
960 3 49.6 43.2 4.8 -11.2759
962 3 1.6 46.4 4.8 -11.2759
993 1 0 48 3.2 -11.8423
964 3 4.8 46.4 4.8 -11.3024
995 1 3.2 48 3.2 -11.8554
966 2 8 46.4 4.8 -9.92984
997 4 6.4 48 3.2 -13.3517
968 2 11.2 46.4 4.8 -9.90927
999 2 9.6 48 3.2 -9.92069
970 2 14.4 46.4 4.8 -9.91602
1001 2 12.8 48 3.2 -9.9292
972 2 17.6 46.4 4.8 -9.90543
1003 2 16 48 3.2 -9.88027
974 2 20.8 46.4 4.8 -9.89217
1005 2 19.2 48 3.2 -9.90458
976 2 24 46.4 4.8 -9.88568
1007 2 22.4 48 3.2 -9.91268
1009 2 25.6 48 3.2 -9.9604
978 2 27.2 46.4 4.8 -9.95686
1011 2 28.8 48 3.2 -9.91321
980 4 30.4 46.4 4.8 -13.3042
1013 1 32 48 3.2 -11.6992
982 2 33.6 46.4 4.8 -9.87186
1015 1 35.2 48 3.2 -11.8202
984 2 36.8 46.4 4.8 -9.9452
1017 1 38.4 48 3.2 -11.8134
986 3 40 46.4 4.8 -11.3501
1019 1 41.6 48 3.2 -11.8278
988 3 43.2 46.4 4.8 -11.3076
1021 1 44.8 48 3.2 -11.8415
990 3 46.4 46.4 4.8 -11.2417
1023 1 48 48 3.2 -11.812
992 3 49.6 46.4 4.8 -11.2391
994 3 1.6 49.6 4.8 -11.2391
996 3 4.8 49.6 4.8 -11.3068
998 2 8 49.6 4.8 -9.90884
1000 2 11.2 49.6 4.8 -9.92841
1002 4 14.4 49.6 4.8 -13.3285
1004 2 17.6 49.6 4.8 -9.84143
1006 2 20.8 49.6 4.8 -9.88859
1008 2 24 49.6 4.8 -9.85925
1010 3 27.2 49.6 4.8 -11.4589
1012 2 30.4 49.6 4.8 -9.85118
1014 2 33.6 49.6 4.8 -9.83434
1016 3 36.8 49.6 4.8 -11.3487
1018 3 40 49.6 4.8 -11.3054
1020 3 43.2 49.6 4.8 -11.2417
1022 3 46.4 49.6 4.8 -11.2414
1024 3 49.6 49.6 4.8 -11.2759
1025 1 0 0 6.4 -11.8284
1026 3 1.6 1.6 8 -11.2045
1027 1 3.2 0 6.4 -11.8255
1028 3 4.8 1.6 8 -11.3208
1029 4 6.4 0 6.4 -13.4237
1030 2 8 1.6 8 -9.93813
1031 2 9.6 0 6.4 -9.93689
1032 2 11.2 1.6 8 -9.93838
1033 2 12.8 0 6.4 -9.8918
1034 3 14.4 1.6 8 -11.2853
1035 1 16 0 6.4 -11.7485
1036 3 17.6 1.6 8 -11.2408
1037 4 19.2 0 6.4 -13.3037
1038 3 20.8 1.6 8 -11.3635
1039 1 22.4 0 6.4 -11.7735
1040 3 24 1.6 8 -11.2935
1041 1 25.6 0 6.4 -11.8503
1042 3 27.2 1.6 8 -11.3011
1043 2 28.8 0 6.4 -9.8979
1044 2 30.4 1.6 8 -9.88684
1045 2 32 0 6.4 -9.87036
1046 4 33.6 1.6 8 -13.2959
1047 2 35.2 0 6.4 -9.85603
1048 2 36.8 1.6 8 -9.79678
1049 4 38.4 0 6.4 -13.3458
1050 2 40 1.6 8 -9.88395
1051 1 41.6 0 6.4 -11.8458
1052 3 43.2 1.6 8 -11.3855
1053 1 44.8 0 6.4 -11.8413
1054 3 46.4 1.6 8 -11.2759
1055 1 48 0 6.4 -11.8414
1056 3 49.6 1.6 8 -11.242
1057 1 0 3.2 6.4 -11.8094
1058 3 1.6 4.8 8 -11.2966
1059 1 3.2 3.2 6.4 -11.7866
1060 2 4.8 4.8 8 -9.86406
1061 2 6.4 3.2 6.4 -9.89455
1062 4 8 4.8 8 -13.4267
1063 2 9.6 3.2 6.4 -9.88403
1064 2 11.2 4.8 8 -9.88368
1065 2 12.8 3.2 6.4 -9.89272
1066 2 14.4 4.8 8 -9.90751
1067 1 16 3.2 6.4 -11.8178
1068 3 17.6 4.8 8 -11.3027
1069 1 19.2 3.2 6.4 -11.8455
1070 3 20.8 4.8 8 -11.2933
1071 2 22.4 3.2 6.4 -9.79477
1072 2 24 4.8 8 -9.86645
1073 1 25.6 3.2 6.4 -11.8056
1074 2 27.2 4.8 8 -9.81048
1075 4 28.8 3.2 6.4 -13.3724
1076 4 30.4 4.8 8 -13.3127
1077 2 32 3.2 6.4 -9.8357
1078 2 33.6 4.8 8 -9.81759
1079 4 35.2 3.2 6.4 -13.3038
1080 3 36.8 4.8 8 -11.2958
1081 1 38.4 3.2 6.4 -11.8069
1082 2 40 4.8 8 -9.92076
1083 4 41.6 3.2 6.4 -13.3791
1084 3 43.2 4.8 8 -11.415
1085 1 44.8 3.2 6.4 -11.8693
1086 3 46.4 4.8 8 -11.2726
1087 1 48 3.2 6.4 -11.8695
1088 3 49.6 4.8 8 -11.3314
1089 2 0 6.4 6.4 -9.87767
1090 2 1.6 8 8 -9.90506
1091 2 3.2 6.4 6.4 -9.83791
1092 4 4.8 8 8 -13.3727
1093 2 6.4 6.4 6.4 -9.90601
1094 2 8 8 8 -9.88332
1095 4 9.6 6.4 6.4 -13.3757
1096 2 11.2 8 8 -9.9077
1097 2 12.8 6.4 6.4 -9.91987
1098 4 14.4 8 8 -13.4279
1099 2 16 6.4 6.4 -9.84017
1100 2 17.6 8 8 -9.84602
1101 1 19.2 6.4 6.4 -11.8197
1102 2 20.8 8 8 -9.86285
1103 4 22.4 6.4 6.4 -13.3717