ITEM: TIMESTEP
0
ITEM: NUMBER OF ATOMS
8192
ITEM: BOX BOUNDS pp pp pp
0.0000000000000000e+00 5.1200000000000003e+01
0.0000000000000000e+00 5.1200000000000003e+01
0.0000000000000000e+00 5.1200000000000003e+01
ITEM: ATOMS id type x y z c_eng
1 2 0 0 0 -9.89021
2 3 1.6 1.6 1.6 -11.3227
3 2 3.2 0 0 -9.88879
4 2 4.8 1.6 1.6 -9.89373
5 2 6.4 0 0 -9.93555
6 4 8 1.6 1.6 -13.3702
7 3 9.6 0 0 -11.425
8 2 11.2 1.6 1.6 -9.91382
9 1 12.8 0 0 -11.8182
10 2 14.4 1.6 1.6 -9.84575
11 1 16 0 0 -11.776
12 3 17.6 1.6 1.6 -11.2461
13 2 19.2 0 0 -9.82004
14 2 20.8 1.6 1.6 -9.99748
15 1 22.4 0 0 -11.6556
16 3 24 1.6 1.6 -11.4238
17 1 25.6 0 0 -11.7742
18 2 27.2 1.6 1.6 -9.93366
19 1 28.8 0 0 -11.6964
20 3 30.4 1.6 1.6 -11.3013
21 3 32 0 0 -11.3809
22 4 33.6 1.6 1.6 -13.4444
23 2 35.2 0 0 -9.8853
24 4 36.8 1.6 1.6 -13.2581
25 4 38.4 0 0 -13.3597
26 4 40 1.6 1.6 -13.389
27 3 41.6 0 0 -11.3388
28 4 43.2 1.6 1.6 -13.3526
29 2 44.8 0 0 -9.84359
30 2 46.4 1.6 1.6 -9.89044
31 4 48 0 0 -13.4197
32 3 49.6 1.6 1.6 -11.3772
33 1 0 3.2 0 -11.6897
34 4 1.6 4.8 1.6 -13.3513
35 3 3.2 3.2 0 -11.3451
36 1 4.8 4.8 1.6 -11.9206
37 3 6.4 3.2 0 -11.3166
38 1 8 4.8 1.6 -11.7126
39 4 9.6 3.2 0 -13.2781
40 1 11.2 4.8 1.6 -11.6766
41 2 12.8 3.2 0 -9.78735
42 1 14.4 4.8 1.6 -11.6071
43 2 16 3.2 0 -9.77592
44 1 17.6 4.8 1.6 -11.6772
45 3 19.2 3.2 0 -11.3313
46 3 20.8 4.8 1.6 -11.3485
47 2 22.4 3.2 0 -9.8834
48 3 24 4.8 1.6 -11.4401
49 2 25.6 3.2 0 -9.89096
50 3 27.2 4.8 1.6 -11.3739
51 1 28.8 3.2 0 -11.8026
52 3 30.4 4.8 1.6 -11.481
53 4 32 3.2 0 -13.508
54 3 33.6 4.8 1.6 -11.4241
55 3 35.2 3.2 0 -11.2718
56 1 36.8 4.8 1.6 -11.715
57 3 38.4 3.2 0 -11.0835
58 1 40 4.8 1.6 -11.7362
59 3 41.6 3.2 0 -11.2222
60 1 43.2 4.8 1.6 -11.7675
61 2 44.8 3.2 0 -9.90317
62 3 46.4 4.8 1.6 -11.3783
63 1 48 3.2 0 -11.757
64 2 49.6 4.8 1.6 -9.881
65 2 0 6.4 0 -9.8631
66 2 1.6 8 1.6 -9.92904
67 3 3.2 6.4 0 -11.4302
68 3 4.8 8 1.6 -11.4142
69 2 6.4 6.4 0 -9.96025
70 3 8 8 1.6 -11.3586
71 2 9.6 6.4 0 -9.85969
72 2 11.2 8 1.6 -9.86201
73 2 12.8 6.4 0 -9.80554
74 1 14.4 8 1.6 -11.7362
75 2 16 6.4 0 -9.723
76 2 17.6 8 1.6 -9.84543
77 2 19.2 6.4 0 -9.85709
78 3 20.8 8 1.6 -11.4263
79 2 22.4 6.4 0 -9.83828
80 3 24 8 1.6 -11.3704
81 1 25.6 6.4 0 -11.8007
82 3 27.2 8 1.6 -11.3475
83 1 28.8 6.4 0 -11.7696
84 2 30.4 8 1.6 -9.79262
85 3 32 6.4 0 -11.3727
86 1 33.6 8 1.6 -11.8648
87 3 35.2 6.4 0 -11.4279
88 2 36.8 8 1.6 -9.87411
89 3 38.4 6.4 0 -11.3065
90 2 40 8 1.6 -9.89147
91 2 41.6 6.4 0 -9.8793
92 2 43.2 8 1.6 -9.89571
93 2 44.8 6.4 0 -9.8716
94 3 46.4 8 1.6 -11.4492
95 2 48 6.4 0 -9.93362
96 2 49.6 8 1.6 -9.96918
97 1 0 9.6 0 -11.8146
98 3 1.6 11.2 1.6 -11.4147
99 2 3.2 9.6 0 -9.88577
100 3 4.8 11.2 1.6 -11.3199
101 1 6.4 9.6 0 -11.7492
102 2 8 11.2 1.6 -9.85248
103 2 9.6 9.6 0 -9.86198
104 1 11.2 11.2 1.6 -11.7398
105 2 12.8 9.6 0 -9.76899
106 1 14.4 11.2 1.6 -11.7161
107 3 16 9.6 0 -11.2688
108 2 17.6 11.2 1.6 -9.9624
109 3 19.2 9.6 0 -11.412
110 3 20.8 11.2 1.6 -11.2643
111 1 22.4 9.6 0 -11.8203
112 4 24 11.2 1.6 -13.2987
113 3 25.6 9.6 0 -11.3152
114 1 27.2 11.2 1.6 -11.7305
115 2 28.8 9.6 0 -9.78695
116 1 30.4 11.2 1.6 -11.694
117 3 32 9.6 0 -11.1593
118 1 33.6 11.2 1.6 -11.7891
119 3 35.2 9.6 0 -11.3249
120 1 36.8 11.2 1.6 -11.703
121 2 38.4 9.6 0 -9.78052
122 1 40 11.2 1.6 -11.5882
123 2 41.6 9.6 0 -9.75354
124 1 43.2 11.2 1.6 -11.6964
125 1 44.8 9.6 0 -11.7813
126 3 46.4 11.2 1.6 -11.3265
127 1 48 9.6 0 -11.8664
128 3 49.6 11.2 1.6 -11.3984
129 2 0 12.8 0 -9.8715
130 3 1.6 14.4 1.6 -11.415
131 3 3.2 12.8 0 -11.3572
132 2 4.8 14.4 1.6 -9.88525
133 1 6.4 12.8 0 -11.7418
134 4 8 14.4 1.6 -13.4738
135 3 9.6 12.8 0 -11.3158
136 4 11.2 14.4 1.6 -13.3692
137 2 12.8 12.8 0 -9.76272
138 2 14.4 14.4 1.6 -9.82595
139 1 16 12.8 0 -11.8062
140 3 17.6 14.4 1.6 -11.3795
141 3 19.2 12.8 0 -11.363
142 2 20.8 14.4 1.6 -9.89103
143 1 22.4 12.8 0 -11.7517
144 2 24 14.4 1.6 -9.81324
145 2 25.6 12.8 0 -9.81237
146 1 27.2 14.4 1.6 -11.7643
147 2 28.8 12.8 0 -9.74742
148 1 30.4 14.4 1.6 -11.8417
149 2 32 12.8 0 -9.87935
150 2 33.6 14.4 1.6 -9.85915
151 3 35.2 12.8 0 -11.3266
152 3 36.8 14.4 1.6 -11.4274
153 4 38.4 12.8 0 -13.3624
154 3 40 14.4 1.6 -11.389
155 2 41.6 12.8 0 -9.81595
156 1 43.2 14.4 1.6 -11.8229
157 2 44.8 12.8 0 -9.78797
158 1 46.4 14.4 1.6 -11.7127
159 2 48 12.8 0 -9.78743
160 1 49.6 14.4 1.6 -11.718
161 2 0 16 0 -9.93172
162 3 1.6 17.6 1.6 -11.3821
163 2 3.2 16 0 -9.99133
164 1 4.8 17.6 1.6 -11.7252
165 3 6.4 16 0 -11.3982
166 4 8 17.6 1.6 -13.342
167 3 9.6 16 0 -11.3758
168 2 11.2 17.6 1.6 -9.85173
169 2 12.8 16 0 -9.89112
170 1 14.4 17.6 1.6 -11.6581
171 4 16 16 0 -13.2611
172 4 17.6 17.6 1.6 -13.3084
173 3 19.2 16 0 -11.3739
174 4 20.8 17.6 1.6 -13.3445
175 2 22.4 16 0 -9.86681
176 3 24 17.6 1.6 -11.3375
177 2 25.6 16 0 -9.93417
178 4 27.2 17.6 1.6 -13.3427
179 3 28.8 16 0 -11.4104
180 1 30.4 17.6 1.6 -11.7787
181 3 32 16 0 -11.3191
182 1 33.6 17.6 1.6 -11.7487
183 2 35.2 16 0 -9.90112
184 3 36.8 17.6 1.6 -11.2705
185 1 38.4 16 0 -11.8741
186 4 40 17.6 1.6 -13.3856
187 3 41.6 16 0 -11.3871
188 2 43.2 17.6 1.6 -9.89169
189 3 44.8 16 0 -11.2475
190 2 46.4 17.6 1.6 -9.84601
191 2 48 16 0 -9.78346
192 3 49.6 17.6 1.6 -11.387
193 3 0 19.2 0 -11.4427
194 2 1.6 20.8 1.6 -9.91562
195 2 3.2 19.2 0 -9.94901
196 3 4.8 20.8 1.6 -11.379
197 3 6.4 19.2 0 -11.335
198 3 8 20.8 1.6 -11.1502
199 1 9.6 19.2 0 -11.8069
200 2 11.2 20.8 1.6 -9.70426
201 1 12.8 19.2 0 -11.6364
202 1 14.4 20.8 1.6 -11.626
203 2 16 19.2 0 -9.64262
204 2 17.6 20.8 1.6 -9.78481
205 2 19.2 19.2 0 -9.81498
206 2 20.8 20.8 1.6 -9.78446
207 1 22.4 19.2 0 -11.809
208 3 24 20.8 1.6 -11.2826
209 2 25.6 19.2 0 -9.91722
210 1 27.2 20.8 1.6 -11.7611
211 3 28.8 19.2 0 -11.2857
212 1 30.4 20.8 1.6 -11.7498
213 2 32 19.2 0 -9.79045
214 2 33.6 20.8 1.6 -9.88521
215 1 35.2 19.2 0 -11.7699
216 2 36.8 20.8 1.6 -9.83338
217 1 38.4 19.2 0 -11.7485
218 2 40 20.8 1.6 -9.83116
219 1 41.6 19.2 0 -11.8032
220 3 43.2 20.8 1.6 -11.2941
221 1 44.8 19.2 0 -11.7634
222 4 46.4 20.8 1.6 -13.3442
223 1 48 19.2 0 -11.7618
224 3 49.6 20.8 1.6 -11.3426
225 2 0 22.4 0 -9.79913
226 1 1.6 24 1.6 -11.7845
227 4 3.2 22.4 0 -13.3942
228 3 4.8 24 1.6 -11.3486
229 1 6.4 22.4 0 -11.891
230 3 8 24 1.6 -11.1611
231 1 9.6 22.4 0 -11.7873
232 4 11.2 24 1.6 -13.3302
233 2 12.8 22.4 0 -9.73646
234 3 14.4 24 1.6 -11.2063
235 2 16 22.4 0 -9.80462
236 2 17.6 24 1.6 -9.84647
237 1 19.2 22.4 0 -11.7701
238 3 20.8 24 1.6 -11.314
239 3 22.4 22.4 0 -11.2877
240 2 24 24 1.6 -9.92678
241 2 25.6 22.4 0 -9.84524
242 2 27.2 24 1.6 -9.80395
243 3 28.8 22.4 0 -11.2298
244 1 30.4 24 1.6 -11.7969
245 2 32 22.4 0 -9.86662
246 2 33.6 24 1.6 -9.88674
247 2 35.2 22.4 0 -9.8738
248 1 36.8 24 1.6 -11.7267
249 1 38.4 22.4 0 -11.7126
250 1 40 24 1.6 -11.6496
251 2 41.6 22.4 0 -9.87935
252 1 43.2 24 1.6 -11.6524
253 2 44.8 22.4 0 -9.8104
254 3 46.4 24 1.6 -11.1731
255 1 48 22.4 0 -11.7289
256 2 49.6 24 1.6 -9.83076
257 3 0 25.6 0 -11.1649
259 2 3.2 25.6 0 -9.86002
261 1 6.4 25.6 0 -11.7417
263 2 9.6 25.6 0 -9.82793
265 1 12.8 25.6 0 -11.7607
267 3 16 25.6 0 -11.2559
269 1 19.2 25.6 0 -11.6137
271 2 22.4 25.6 0 -9.79566
273 1 25.6 25.6 0 -11.5561
275 2 28.8 25.6 0 -9.8455
277 3 32 25.6 0 -11.393
279 4 35.2 25.6 0 -13.4315
281 2 38.4 25.6 0 -9.75739
283 2 41.6 25.6 0 -9.83703
285 1 44.8 25.6 0 -11.7018
287 1 48 25.6 0 -11.6453
258 1 1.6 27.2 1.6 -11.8605
289 3 0 28.8 0 -11.2682
260 4 4.8 27.2 1.6 -13.3156
291 3 3.2 28.8 0 -11.3532
262 2 8 27.2 1.6 -9.77612
293 4 6.4 28.8 0 -13.1864
264 3 11.2 27.2 1.6 -11.2834
295 2 9.6 28.8 0 -9.88494
266 2 14.4 27.2 1.6 -9.9133
297 2 12.8 28.8 0 -9.87777
268 4 17.6 27.2 1.6 -13.2854
299 3 16 28.8 0 -11.2679
270 2 20.8 27.2 1.6 -9.82397
301 1 19.2 28.8 0 -11.6965
272 1 24 27.2 1.6 -11.7437
303 2 22.4 28.8 0 -9.82901
305 2 25.6 28.8 0 -9.8131
274 4 27.2 27.2 1.6 -13.2906
307 3 28.8 28.8 0 -11.3546
276 3 30.4 27.2 1.6 -11.3284
309 3 32 28.8 0 -11.3357
278 2 33.6 27.2 1.6 -9.87891
311 2 35.2 28.8 0 -9.70007
280 2 36.8 27.2 1.6 -9.87234
313 1 38.4 28.8 0 -11.751
282 2 40 27.2 1.6 -9.85947
315 4 41.6 28.8 0 -13.3358
284 2 43.2 27.2 1.6 -9.8132
317 2 44.8 28.8 0 -9.84083
286 2 46.4 27.2 1.6 -9.82162
319 2 48 28.8 0 -9.80949
288 1 49.6 27.2 1.6 -11.7624
290 1 1.6 30.4 1.6 -11.8458
321 2 0 32 0 -9.79666
292 2 4.8 30.4 1.6 -9.79727
323 2 3.2 32 0 -9.81372
294 2 8 30.4 1.6 -9.63224
325 1 6.4 32 0 -11.6377
296 1 11.2 30.4 1.6 -11.6851
327 1 9.6 32 0 -11.592
298 1 14.4 30.4 1.6 -11.7243
329 2 12.8 32 0 -9.74808
300 2 17.6 30.4 1.6 -9.8535
331 2 16 32 0 -9.90113
302 3 20.8 30.4 1.6 -11.2554
333 1 19.2 32 0 -11.8098
304 2 24 30.4 1.6 -9.89151
335 1 22.4 32 0 -11.8706
337 2 25.6 32 0 -9.89314
306 4 27.2 30.4 1.6 -13.3116
339 3 28.8 32 0 -11.4577
308 2 30.4 30.4 1.6 -9.8589
341 2 32 32 0 -9.91218
310 1 33.6 30.4 1.6 -11.6826
343 2 35.2 32 0 -9.73724
312 2 36.8 30.4 1.6 -9.72575
345 2 38.4 32 0 -9.74032
314 2 40 30.4 1.6 -9.78895
347 1 41.6 32 0 -11.7347
316 2 43.2 30.4 1.6 -9.84788
349 1 44.8 32 0 -11.8056
318 3 46.4 30.4 1.6 -11.2806
351 1 48 32 0 -11.754
320 1 49.6 30.4 1.6 -11.7582
322 2 1.6 33.6 1.6 -9.78363
353 1 0 35.2 0 -11.7466
324 2 4.8 33.6 1.6 -9.85211
355 1 3.2 35.2 0 -11.7351
326 1 8 33.6 1.6 -11.6559
357 3 6.4 35.2 0 -11.289
328 1 11.2 33.6 1.6 -11.684
359 2 9.6 35.2 0 -9.82806
330 2 14.4 33.6 1.6 -9.87912
361 2 12.8 35.2 0 -9.93763
332 2 17.6 33.6 1.6 -9.92724
363 2 16 35.2 0 -9.8572
334 3 20.8 33.6 1.6 -11.3237
365 2 19.2 35.2 0 -9.8203
336 3 24 33.6 1.6 -11.3984
367 1 22.4 35.2 0 -11.7362
369 2 25.6 35.2 0 -9.90902
338 2 27.2 33.6 1.6 -9.92321
371 4 28.8 35.2 0 -13.4247
340 2 30.4 33.6 1.6 -9.85644
373 2 32 35.2 0 -9.84272
342 1 33.6 33.6 1.6 -11.7068
375 2 35.2 35.2 0 -9.84117
344 1 36.8 33.6 1.6 -11.6911
377 2 38.4 35.2 0 -9.7265
346 1 40 33.6 1.6 -11.6959
379 2 41.6 35.2 0 -9.80602
348 3 43.2 33.6 1.6 -11.2532
381 1 44.8 35.2 0 -11.8598
350 3 46.4 33.6 1.6 -11.3626
383 1 48 35.2 0 -11.8612
352 2 49.6 33.6 1.6 -9.87647
354 3 1.6 36.8 1.6 -11.2008
385 1 0 38.4 0 -11.8127
356 3 4.8 36.8 1.6 -11.3806
387 1 3.2 38.4 0 -11.827
358 2 8 36.8 1.6 -9.9261
389 1 6.4 38.4 0 -11.9067
360 2 11.2 36.8 1.6 -9.87208
391 1 9.6 38.4 0 -11.8376
362 1 14.4 36.8 1.6 -11.7734
393 3 12.8 38.4 0 -11.386
364 1 17.6 36.8 1.6 -11.7224
395 2 16 38.4 0 -9.82562
366 1 20.8 36.8 1.6 -11.7897
397 3 19.2 38.4 0 -11.2861
368 2 24 36.8 1.6 -9.9196
399 3 22.4 38.4 0 -11.3136
401 3 25.6 38.4 0 -11.3448
370 2 27.2 36.8 1.6 -9.87142
403 3 28.8 38.4 0 -11.3876
372 4 30.4 36.8 1.6 -13.3768
405 3 32 38.4 0 -11.3876
374 2 33.6 36.8 1.6 -9.86478
407 3 35.2 38.4 0 -11.3213
376 1 36.8 36.8 1.6 -11.7613
409 2 38.4 38.4 0 -9.87306
378 1 40 36.8 1.6 -11.6369
411 2 41.6 38.4 0 -9.84885
380 2 43.2 36.8 1.6 -9.81917
413 2 44.8 38.4 0 -9.87111
382 3 46.4 36.8 1.6 -11.3918
415 2 48 38.4 0 -9.82477
384 3 49.6 36.8 1.6 -11.3624
386 3 1.6 40 1.6 -11.2397
417 1 0 41.6 0 -11.719
388 3 4.8 40 1.6 -11.3619
419 1 3.2 41.6 0 -11.7825
390 3 8 40 1.6 -11.2789
421 1 6.4 41.6 0 -11.7985
392 2 11.2 40 1.6 -9.92715
423 2 9.6 41.6 0 -9.87509
394 4 14.4 40 1.6 -13.3419
425 3 12.8 41.6 0 -11.4644
396 1 17.6 40 1.6 -11.7638
427 2 16 41.6 0 -9.94374
398 4 20.8 40 1.6 -13.3668
429 2 19.2 41.6 0 -9.94285
400 2 24 40 1.6 -9.84008
431 2 22.4 41.6 0 -9.91867
433 1 25.6 41.6 0 -11.7074
402 2 27.2 40 1.6 -9.92862
435 3 28.8 41.6 0 -11.3945
404 3 30.4 40 1.6 -11.4601
437 1 32 41.6 0 -11.7238
406 3 33.6 40 1.6 -11.386
439 1 35.2 41.6 0 -11.8026
408 2 36.8 40 1.6 -9.93669
441 2 38.4 41.6 0 -9.88069
410 2 40 40 1.6 -9.89556
443 4 41.6 41.6 0 -13.3528
412 3 43.2 40 1.6 -11.2908
445 1 44.8 41.6 0 -11.7579
414 3 46.4 40 1.6 -11.2933
447 1 48 41.6 0 -11.8148
416 3 49.6 40 1.6 -11.2723
418 2 1.6 43.2 1.6 -9.80828
449 1 0 44.8 0 -11.7797
420 2 4.8 43.2 1.6 -9.78933
451 1 3.2 44.8 0 -11.7583
422 1 8 43.2 1.6 -11.7305
453 4 6.4 44.8 0 -13.3444
424 1 11.2 43.2 1.6 -11.8425
455 3 9.6 44.8 0 -11.2881
426 2 14.4 43.2 1.6 -9.93925
457 3 12.8 44.8 0 -11.3226
428 2 17.6 43.2 1.6 -9.90019
459 2 16 44.8 0 -9.9247
430 2 20.8 43.2 1.6 -9.90604
461 3 19.2 44.8 0 -11.3746
432 2 24 43.2 1.6 -9.80706
463 2 22.4 44.8 0 -9.92703
465 4 25.6 44.8 0 -13.3866
434 2 27.2 43.2 1.6 -9.84765
467 2 28.8 44.8 0 -9.84919
436 2 30.4 43.2 1.6 -9.86655
469 1 32 44.8 0 -11.6898
438 2 33.6 43.2 1.6 -9.90466
471 3 35.2 44.8 0 -11.2333
440 2 36.8 43.2 1.6 -9.83386
473 3 38.4 44.8 0 -11.2822
442 1 40 43.2 1.6 -11.6747
475 2 41.6 44.8 0 -9.87691
444 2 43.2 43.2 1.6 -9.79441
477 3 44.8 44.8 0 -11.3685
446 2 46.4 43.2 1.6 -9.86732
479 3 48 44.8 0 -11.4348
448 3 49.6 43.2 1.6 -11.3804
450 2 1.6 46.4 1.6 -9.85319
481 3 0 48 0 -11.3095
452 2 4.8 46.4 1.6 -9.8853
483 1 3.2 48 0 -11.7846
454 2 8 46.4 1.6 -9.82233
485 2 6.4 48 0 -9.90799
456 1 11.2 46.4 1.6 -11.8867
487 3 9.6 48 0 -11.4684
458 1 14.4 46.4 1.6 -11.8787
489 3 12.8 48 0 -11.3942
460 1 17.6 46.4 1.6 -11.7421
491 3 16 48 0 -11.3612
462 1 20.8 46.4 1.6 -11.7349
493 3 19.2 48 0 -11.2126
464 2 24 46.4 1.6 -9.86674
495 2 22.4 48 0 -9.85513
497 3 25.6 48 0 -11.3424
466 2 27.2 46.4 1.6 -9.88142
499 1 28.8 48 0 -11.749
468 4 30.4 46.4 1.6 -13.2819
501 3 32 48 0 -11.3026
470 1 33.6 46.4 1.6 -11.759
503 2 35.2 48 0 -9.88761
472 1 36.8 46.4 1.6 -11.7828
505 4 38.4 48 0 -13.3504
474 2 40 46.4 1.6 -9.82756
507 2 41.6 48 0 -9.89306
476 1 43.2 46.4 1.6 -11.7373
509 2 44.8 48 0 -9.93109
478 4 46.4 46.4 1.6 -13.3967
511 3 48 48 0 -11.4141
480 3 49.6 46.4 1.6 -11.4345
482 4 1.6 49.6 1.6 -13.4153
484 4 4.8 49.6 1.6 -13.3073
486 1 8 49.6 1.6 -11.8065
488 3 11.2 49.6 1.6 -11.4414
490 3 14.4 49.6 1.6 -11.4313
492 2 17.6 49.6 1.6 -9.88199
494 3 20.8 49.6 1.6 -11.2303
496 1 24 49.6 1.6 -11.7925
498 2 27.2 49.6 1.6 -9.81378
500 4 30.4 49.6 1.6 -13.393
502 3 33.6 49.6 1.6 -11.3491
504 3 36.8 49.6 1.6 -11.3586
506 3 40 49.6 1.6 -11.363
508 1 43.2 49.6 1.6 -11.6902
510 4 46.4 49.6 1.6 -13.3423
512 3 49.6 49.6 1.6 -11.4179
513 1 0 0 3.2 -11.872
514 2 1.6 1.6 4.8 -9.88124
515 2 3.2 0 3.2 -9.88416
516 2 4.8 1.6 4.8 -9.9413
517 2 6.4 0 3.2 -9.86165
518 1 8 1.6 4.8 -11.6899
519 3 9.6 0 3.2 -11.3584
520 2 11.2 1.6 4.8 -9.8858
521 3 12.8 0 3.2 -11.4141
522 2 14.4 1.6 4.8 -9.86079
523 1 16 0 3.2 -11.7954
524 3 17.6 1.6 4.8 -11.201
525 1 19.2 0 3.2 -11.8349
526 3 20.8 1.6 4.8 -11.3729
527 3 22.4 0 3.2 -11.4102
528 3 24 1.6 4.8 -11.3984
529 3 25.6 0 3.2 -11.398
530 2 27.2 1.6 4.8 -9.91838
531 1 28.8 0 3.2 -11.8067
532 2 30.4 1.6 4.8 -9.86135
533 2 32 0 3.2 -9.94484
534 2 33.6 1.6 4.8 -9.89347
535 1 35.2 0 3.2 -11.8062
536 3 36.8 1.6 4.8 -11.3459
537 2 38.4 0 3.2 -9.83641
538 3 40 1.6 4.8 -11.4515
539 2 41.6 0 3.2 -9.90089
540 2 43.2 1.6 4.8 -9.89659
541 1 44.8 0 3.2 -11.6642
542 2 46.4 1.6 4.8 -9.92976
543 2 48 0 3.2 -9.85843
544 2 49.6 1.6 4.8 -9.93269
545 2 0 3.2 3.2 -9.84355
546 1 1.6 4.8 4.8 -11.75
547 2 3.2 3.2 3.2 -10.0041
548 3 4.8 4.8 4.8 -11.3418
549 3 6.4 3.2 3.2 -11.2438
550 1 8 4.8 4.8 -11.6334
551 2 9.6 3.2 3.2 -9.72278
552 1 11.2 4.8 4.8 -11.7086
553 2 12.8 3.2 3.2 -9.83083
554 2 14.4 4.8 4.8 -9.79127
555 1 16 3.2 3.2 -11.6934
556 3 17.6 4.8 4.8 -11.2425
557 4 19.2 3.2 3.2 -13.3398
558 2 20.8 4.8 4.8 -9.87084
559 4 22.4 3.2 3.2 -13.4917
560 4 24 4.8 4.8 -13.3047
561 3 25.6 3.2 3.2 -11.4552
562 3 27.2 4.8 4.8 -11.2478
563 2 28.8 3.2 3.2 -9.8617
564 2 30.4 4.8 4.8 -9.85884
565 2 32 3.2 3.2 -9.92149
566 2 33.6 4.8 4.8 -9.92189
567 4 35.2 3.2 3.2 -13.3076
568 2 36.8 4.8 4.8 -9.83074
569 1 38.4 3.2 3.2 -11.6718
570 2 40 4.8 4.8 -9.91917
571 3 41.6 3.2 3.2 -11.3126
572 1 43.2 4.8 4.8 -11.7554
573 2 44.8 3.2 3.2 -9.85973
574 2 46.4 4.8 4.8 -9.87538
575 2 48 3.2 3.2 -9.95813
576 4 49.6 4.8 4.8 -13.2944
577 2 0 6.4 3.2 -9.85743
578 4 1.6 8 4.8 -13.3286
579 3 3.2 6.4 3.2 -11.4088
580 3 4.8 8 4.8 -11.4233
581 2 6.4 6.4 3.2 -9.86694
582 4 8 8 4.8 -13.3138
583 2 9.6 6.4 3.2 -9.82732
584 2 11.2 8 4.8 -9.80491
585 2 12.8 6.4 3.2 -9.73836
586 4 14.4 8 4.8 -13.3404
587 2 16 6.4 3.2 -9.77637
588 2 17.6 8 4.8 -9.9238
589 1 19.2 6.4 3.2 -11.8099
590 2 20.8 8 4.8 -9.90487
591 2 22.4 6.4 3.2 -9.84952
592 4 24 8 4.8 -13.3512
593 4 25.6 6.4 3.2 -13.4151
594 3 27.2 8 4.8 -11.2543
595 1 28.8 6.4 3.2 -11.7927
596 1 30.4 8 4.8 -11.6842
597 3 32 6.4 3.2 -11.4089
598 4 33.6 8 4.8 -13.3571
599 2 35.2 6.4 3.2 -9.88505
600 3 36.8 8 4.8 -11.3625
601 4 38.4 6.4 3.2 -13.3192
602 3 40 8 4.8 -11.3907
603 3 41.6 6.4 3.2 -11.359
604 2 43.2 8 4.8 -9.89946
605 4 44.8 6.4 3.2 -13.3861
606 4 46.4 8 4.8 -13.3676
607 2 48 6.4 3.2 -9.89455
608 2 49.6 8 4.8 -9.83426
609 2 0 9.6 3.2 -9.88417
610 1 1.6 11.2 4.8 -11.7529
611 4 3.2 9.6 3.2 -13.4477
612 3 4.8 11.2 4.8 -11.2151
613 1 6.4 9.6 3.2 -11.7978
614 4 8 11.2 4.8 -13.2563
615 2 9.6 9.6 3.2 -9.86144
616 1 11.2 11.2 4.8 -11.7349
617 2 12.8 9.6 3.2 -9.73786
618 2 14.4 11.2 4.8 -9.78265
619 2 16 9.6 3.2 -9.92759
620 2 17.6 11.2 4.8 -9.88998
621 2 19.2 9.6 3.2 -9.88668
622 2 20.8 11.2 4.8 -9.8376
623 1 22.4 9.6 3.2 -11.7827
624 2 24 11.2 4.8 -9.877
625 2 25.6 9.6 3.2 -9.86429
626 2 27.2 11.2 4.8 -9.91426
627 4 28.8 9.6 3.2 -13.2604
628 1 30.4 11.2 4.8 -11.6277
629 2 32 9.6 3.2 -9.79658
630 2 33.6 11.2 4.8 -9.79254
631 2 35.2 9.6 3.2 -9.83667
632 2 36.8 11.2 4.8 -9.81718
633 1 38.4 9.6 3.2 -11.6591
634 1 40 11.2 4.8 -11.632
635 2 41.6 9.6 3.2 -9.81118
636 1 43.2 11.2 4.8 -11.657
637 3 44.8 9.6 3.2 -11.2817
638 2 46.4 11.2 4.8 -9.89888
639 2 48 9.6 3.2 -9.92624
640 2 49.6 11.2 4.8 -9.9192
641 2 0 12.8 3.2 -9.87183
642 3 1.6 14.4 4.8 -11.2392
643 1 3.2 12.8 3.2 -11.8394
644 2 4.8 14.4 4.8 -9.95472
645 2 6.4 12.8 3.2 -9.81341
646 2 8 14.4 4.8 -9.87679
647 3 9.6 12.8 3.2 -11.2861
648 1 11.2 14.4 4.8 -11.685
649 2 12.8 12.8 3.2 -9.84171
650 4 14.4 14.4 4.8 -13.3413
651 2 16 12.8 3.2 -9.85001
652 2 17.6 14.4 4.8 -9.88373
653 1 19.2 12.8 3.2 -11.7989
654 2 20.8 14.4 4.8 -9.76463
655 1 22.4 12.8 3.2 -11.6891
656 2 24 14.4 4.8 -9.89283
657 2 25.6 12.8 3.2 -9.83467
658 2 27.2 14.4 4.8 -9.82927
659 3 28.8 12.8 3.2 -11.1884
660 1 30.4 14.4 4.8 -11.7537
661 3 32 12.8 3.2 -11.1579
662 1 33.6 14.4 4.8 -11.7852
663 2 35.2 12.8 3.2 -9.90148
664 1 36.8 14.4 4.8 -11.8199
665 2 38.4 12.8 3.2 -9.7953
666 2 40 14.4 4.8 -9.8485
667 2 41.6 12.8 3.2 -9.77007
668 3 43.2 14.4 4.8 -11.2116
669 2 44.8 12.8 3.2 -9.85726
670 1 46.4 14.4 4.8 -11.6439
671 4 48 12.8 3.2 -13.2803
672 1 49.6 14.4 4.8 -11.6939
673 2 0 16 3.2 -9.82306
674 2 1.6 17.6 4.8 -9.81206
675 1 3.2 16 3.2 -11.7898
676 3 4.8 17.6 4.8 -11.2053
677 2 6.4 16 3.2 -9.87707
678 2 8 17.6 4.8 -9.84199
679 2 9.6 16 3.2 -9.88812
680 3 11.2 17.6 4.8 -11.2051
681 3 12.8 16 3.2 -11.2384
682 1 14.4 17.6 4.8 -11.6491
683 2 16 16 3.2 -9.87931
684 2 17.6 17.6 4.8 -9.92255
685 2 19.2 16 3.2 -9.88591
686 3 20.8 17.6 4.8 -11.2447
687 4 22.4 16 3.2 -13.3461
688 3 24 17.6 4.8 -11.3206
689 4 25.6 16 3.2 -13.3574
690 1 27.2 17.6 4.8 -11.6412
691 3 28.8 16 3.2 -11.2005
692 1 30.4 17.6 4.8 -11.7215
693 3 32 16 3.2 -11.3085
694 2 33.6 17.6 4.8 -9.77885
695 2 35.2 16 3.2 -9.93473
696 1 36.8 17.6 4.8 -11.8475
697 3 38.4 16 3.2 -11.4119
698 4 40 17.6 4.8 -13.3915
699 3 41.6 16 3.2 -11.5001
700 4 43.2 17.6 4.8 -13.417
701 3 44.8 16 3.2 -11.2783
702 1 46.4 17.6 4.8 -11.754
703 2 48 16 3.2 -9.77038
704 2 49.6 17.6 4.8 -9.81842
705 1 0 19.2 3.2 -11.819
706 3 1.6 20.8 4.8 -11.1471
707 1 3.2 19.2 3.2 -11.7671
708 3 4.8 20.8 4.8 -11.3351
709 1 6.4 19.2 3.2 -11.6805
710 4 8 20.8 4.8 -13.2363
711 1 9.6 19.2 3.2 -11.7229
712 3 11.2 20.8 4.8 -11.2754
713 2 12.8 19.2 3.2 -9.68161
714 1 14.4 20.8 4.8 -11.5917
715 2 16 19.2 3.2 -9.77574
716 3 17.6 20.8 4.8 -11.2942
717 4 19.2 19.2 3.2 -13.3151
718 4 20.8 20.8 4.8 -13.2701
719 1 22.4 19.2 3.2 -11.7446
720 3 24 20.8 4.8 -11.1838
721 2 25.6 19.2 3.2 -9.82768
722 2 27.2 20.8 4.8 -9.82701
723 2 28.8 19.2 3.2 -9.76655
724 3 30.4 20.8 4.8 -11.2423
725 2 32 19.2 3.2 -9.83683
726 2 33.6 20.8 4.8 -9.88484
727 2 35.2 19.2 3.2 -9.89527
728 1 36.8 20.8 4.8 -11.8362
729 2 38.4 19.2 3.2 -9.8687
730 4 40 20.8 4.8 -13.3394
731 2 41.6 19.2 3.2 -9.93091
732 4 43.2 20.8 4.8 -13.4463
733 2 44.8 19.2 3.2 -9.88748
734 2 46.4 20.8 4.8 -9.84545
735 2 48 19.2 3.2 -9.8664
736 2 49.6 20.8 4.8 -9.83509
737 1 0 22.4 3.2 -11.8211
738 3 1.6 24 4.8 -11.4342
739 3 3.2 22.4 3.2 -11.3244
740 3 4.8 24 4.8 -11.4512
741 1 6.4 22.4 3.2 -11.8279
742 2 8 24 4.8 -9.83543
743 1 9.6 22.4 3.2 -11.6782
744 2 11.2 24 4.8 -9.86302
745 4 12.8 22.4 3.2 -13.3149
746 1 14.4 24 4.8 -11.6954
747 2 16 22.4 3.2 -9.77581
748 2 17.6 24 4.8 -9.88849
749 1 19.2 22.4 3.2 -11.7569
750 3 20.8 24 4.8 -11.406
751 1 22.4 22.4 3.2 -11.7964
752 3 24 24 4.8 -11.304
753 1 25.6 22.4 3.2 -11.7845
754 2 27.2 24 4.8 -9.89801
755 2 28.8 22.4 3.2 -9.82125
756 1 30.4 24 4.8 -11.7549
757 2 32 22.4 3.2 -9.91124
758 1 33.6 24 4.8 -11.7303
759 3 35.2 22.4 3.2 -11.3445
760 2 36.8 24 4.8 -9.74566
761 2 38.4 22.4 3.2 -9.79958
762 1 40 24 4.8 -11.7236
763 3 41.6 22.4 3.2 -11.2065
764 1 43.2 24 4.8 -11.7431
765 4 44.8 22.4 3.2 -13.3819
766 3 46.4 24 4.8 -11.4189
767 2 48 22.4 3.2 -9.85033
768 3 49.6 24 4.8 -11.3693
769 3 0 25.6 3.2 -11.4188
771 3 3.2 25.6 3.2 -11.5052
773 1 6.4 25.6 3.2 -11.6988
775 1 9.6 25.6 3.2 -11.7848
777 2 12.8 25.6 3.2 -9.87298
779 2 16 25.6 3.2 -9.86528
781 1 19.2 25.6 3.2 -11.8034
783 3 22.4 25.6 3.2 -11.3911
785 3 25.6 25.6 3.2 -11.3593
787 2 28.8 25.6 3.2 -9.91422
789 3 32 25.6 3.2 -11.2607
791 2 35.2 25.6 3.2 -9.84343
793 2 38.4 25.6 3.2 -9.78702
795 2 41.6 25.6 3.2 -9.76096
797 1 44.8 25.6 3.2 -11.6599
799 2 48 25.6 3.2 -9.86785
770 3 1.6 27.2 4.8 -11.4244
801 3 0 28.8 3.2 -11.2852
772 2 4.8 27.2 4.8 -9.87438
803 3 3.2 28.8 3.2 -11.4134
774 2 8 27.2 4.8 -9.79202
805 1 6.4 28.8 3.2 -11.6428
776 2 11.2 27.2 4.8 -9.9766
807 2 9.6 28.8 3.2 -9.86007
778 3 14.4 27.2 4.8 -11.244
809 3 12.8 28.8 3.2 -11.2583
780 2 17.6 27.2 4.8 -9.91553
811 1 16 28.8 3.2 -11.7504
782 3 20.8 27.2 4.8 -11.4794
813 2 19.2 28.8 3.2 -9.80413
784 3 24 27.2 4.8 -11.42
815 2 22.4 28.8 3.2 -9.92406
817 2 25.6 28.8 3.2 -9.81517
786 2 27.2 27.2 4.8 -9.92076
819 1 28.8 28.8 3.2 -11.7265
788 2 30.4 27.2 4.8 -9.84876
821 1 32 28.8 3.2 -11.7138
790 2 33.6 27.2 4.8 -9.80407
823 1 35.2 28.8 3.2 -11.6825
792 2 36.8 27.2 4.8 -9.84201
825 2 38.4 28.8 3.2 -9.78927
794 1 40 27.2 4.8 -11.8019
827 2 41.6 28.8 3.2 -9.86331
796 2 43.2 27.2 4.8 -9.83902
829 1 44.8 28.8 3.2 -11.7296
798 2 46.4 27.2 4.8 -9.90878
831 2 48 28.8 3.2 -9.88587
800 4 49.6 27.2 4.8 -13.3753
802 3 1.6 30.4 4.8 -11.2735
833 2 0 32 3.2 -9.88984
804 2 4.8 30.4 4.8 -9.86323
835 2 3.2 32 3.2 -9.90961
806 4 8 30.4 4.8 -13.2595
837 1 6.4 32 3.2 -11.6661
808 1 11.2 30.4 4.8 -11.7395
839 2 9.6 32 3.2 -9.63871
810 1 14.4 30.4 4.8 -11.7159
841 2 12.8 32 3.2 -9.75154
812 3 17.6 30.4 4.8 -11.3196
843 2 16 32 3.2 -9.82387
814 2 20.8 30.4 4.8 -9.91336
845 1 19.2 32 3.2 -11.8482
816 3 24 30.4 4.8 -11.2592
847 1 22.4 32 3.2 -11.8174
849 1 25.6 32 3.2 -11.7454
818 2 27.2 30.4 4.8 -9.72713
851 1 28.8 32 3.2 -11.6856
820 2 30.4 30.4 4.8 -9.83655
853 2 32 32 3.2 -9.76434
822 2 33.6 30.4 4.8 -9.7636
855 3 35.2 32 3.2 -11.1223
824 1 36.8 30.4 4.8 -11.7583
857 2 38.4 32 3.2 -9.75269
826 1 40 30.4 4.8 -11.7734
859 2 41.6 32 3.2 -9.80436
828 2 43.2 30.4 4.8 -9.81175
861 1 44.8 32 3.2 -11.8229
830 2 46.4 30.4 4.8 -9.85007
863 3 48 32 3.2 -11.3335
832 1 49.6 30.4 4.8 -11.7441
834 2 1.6 33.6 4.8 -9.95069
865 2 0 35.2 3.2 -9.86167
836 2 4.8 33.6 4.8 -9.91272
867 1 3.2 35.2 3.2 -11.8125
838 2 8 33.6 4.8 -9.82376
869 3 6.4 35.2 3.2 -11.3857
840 1 11.2 33.6 4.8 -11.7935
871 3 9.6 35.2 3.2 -11.3583
842 2 14.4 33.6 4.8 -9.8632
873 3 12.8 35.2 3.2 -11.3776
844 2 17.6 33.6 4.8 -9.92528
875 2 16 35.2 3.2 -9.92568
846 2 20.8 33.6 4.8 -9.88037
877 3 19.2 35.2 3.2 -11.349
848 2 24 33.6 4.8 -9.92196
879 3 22.4 35.2 3.2 -11.3753
881 3 25.6 35.2 3.2 -11.3925
850 2 27.2 33.6 4.8 -9.72873
883 2 28.8 35.2 3.2 -9.75127
852 2 30.4 33.6 4.8 -9.7997
885 1 32 35.2 3.2 -11.6655
854 1 33.6 33.6 4.8 -11.7277
887 3 35.2 35.2 3.2 -11.2246
856 1 36.8 33.6 4.8 -11.7671
889 2 38.4 35.2 3.2 -9.65558
858 1 40 33.6 4.8 -11.7354
891 3 41.6 35.2 3.2 -11.1687
860 3 43.2 33.6 4.8 -11.2852
893 1 44.8 35.2 3.2 -11.7898
862 3 46.4 33.6 4.8 -11.3511
895 2 48 35.2 3.2 -9.86457
864 2 49.6 33.6 4.8 -9.87201
866 2 1.6 36.8 4.8 -9.83564
897 1 0 38.4 3.2 -11.7883
868 2 4.8 36.8 4.8 -9.77263
899 1 3.2 38.4 3.2 -11.7794
870 1 8 36.8 4.8 -11.7813
901 2 6.4 38.4 3.2 -9.82934
872 4 11.2 36.8 4.8 -13.4085
903 2 9.6 38.4 3.2 -9.90715
874 2 14.4 36.8 4.8 -9.82459
905 2 12.8 38.4 3.2 -9.88961
876 1 17.6 36.8 4.8 -11.828
907 2 16 38.4 3.2 -9.69653
878 1 20.8 36.8 4.8 -11.8292
909 3 19.2 38.4 3.2 -11.1649
880 2 24 36.8 4.8 -9.79906
911 2 22.4 38.4 3.2 -9.88197
913 2 25.6 38.4 3.2 -9.86474
882 1 27.2 36.8 4.8 -11.7165
915 4 28.8 38.4 3.2 -13.4398
884 2 30.4 36.8 4.8 -9.81153
917 2 32 38.4 3.2 -9.93152
886 2 33.6 36.8 4.8 -9.82817
919 3 35.2 38.4 3.2 -11.4148
888 4 36.8 36.8 4.8 -13.3137
921 4 38.4 38.4 3.2 -13.2199
890 1 40 36.8 4.8 -11.6984
923 1 41.6 38.4 3.2 -11.6858
892 1 43.2 36.8 4.8 -11.6588
925 1 44.8 38.4 3.2 -11.7285
894 3 46.4 36.8 4.8 -11.2229
927 1 48 38.4 3.2 -11.8552
896 2 49.6 36.8 4.8 -9.94038
898 2 1.6 40 4.8 -9.79359
929 1 0 41.6 3.2 -11.8344
900 2 4.8 40 4.8 -9.818
931 2 3.2 41.6 3.2 -9.80713
902 1 8 40 4.8 -11.7717
933 2 6.4 41.6 3.2 -9.82531
904 2 11.2 40 4.8 -9.82532
935 2 9.6 41.6 3.2 -9.86823
906 1 14.4 40 4.8 -11.7214
937 2 12.8 41.6 3.2 -9.91041
908 1 17.6 40 4.8 -11.6956
939 2 16 41.6 3.2 -9.8716
910 1 20.8 40 4.8 -11.729
941 2 19.2 41.6 3.2 -9.80806
912 2 24 40 4.8 -9.81987
943 4 22.4 41.6 3.2 -13.3137
945 1 25.6 41.6 3.2 -11.7208
914 2 27.2 40 4.8 -9.84987
947 2 28.8 41.6 3.2 -9.93952
916 4 30.4 40 4.8 -13.4116
949 3 32 41.6 3.2 -11.3837
918 1 33.6 40 4.8 -11.8721
951 2 35.2 41.6 3.2 -9.9471
920 2 36.8 40 4.8 -9.89843
953 2 38.4 41.6 3.2 -9.85693
922 3 40 40 4.8 -11.32
955 2 41.6 41.6 3.2 -9.74597
924 3 43.2 40 4.8 -11.3462
957 1 44.8 41.6 3.2 -11.7473
926 2 46.4 40 4.8 -9.79058
959 4 48 41.6 3.2 -13.3029
928 2 49.6 40 4.8 -9.88229
930 2 1.6 43.2 4.8 -9.88078
961 2 0 44.8 3.2 -9.85782
932 1 4.8 43.2 4.8 -11.8013
963 2 3.2 44.8 3.2 -9.88481
934 1 8 43.2 4.8 -11.715
965 2 6.4 44.8 3.2 -9.83966
936 2 11.2 43.2 4.8 -9.86773
967 3 9.6 44.8 3.2 -11.1843
938 3 14.4 43.2 4.8 -11.4059
969 3 12.8 44.8 3.2 -11.4546
940 2 17.6 43.2 4.8 -9.92888
971 2 16 44.8 3.2 -9.89464
942 2 20.8 43.2 4.8 -9.84709
973 2 19.2 44.8 3.2 -9.82743
944 2 24 43.2 4.8 -9.79216
975 2 22.4 44.8 3.2 -9.80689
977 1 25.6 44.8 3.2 -11.7095
946 2 27.2 43.2 4.8 -9.76794
979 2 28.8 44.8 3.2 -9.84215
948 1 30.4 43.2 4.8 -11.8601
981 2 32 44.8 3.2 -9.81483
950 2 33.6 43.2 4.8 -9.79821
983 2 35.2 44.8 3.2 -9.87312
952 1 36.8 43.2 4.8 -11.8188
985 2 38.4 44.8 3.2 -9.79479
954 1 40 43.2 4.8 -11.6542
987 1 41.6 44.8 3.2 -11.6164
956 2 43.2 43.2 4.8 -9.8
989 2 44.8 44.8 3.2 -9.79779
958 1 46.4 43.2 4.8 -11.6268
991 2 48 44.8 3.2 -9.86253
960 3 49.6 43.2 4.8 -11.3622
962 4 1.6 46.4 4.8 -13.3113
993 1 0 48 3.2 -11.7898
964 2 4.8 46.4 4.8 -9.83432
995 2 3.2 48 3.2 -9.80464
966 1 8 46.4 4.8 -11.7557
997 2 6.4 48 3.2 -9.83442
968 2 11.2 46.4 4.8 -9.86748
999 4 9.6 48 3.2 -13.4147
970 2 14.4 46.4 4.8 -9.91828
1001 3 12.8 48 3.2 -11.4512
972 2 17.6 46.4 4.8 -9.76663
1003 2 16 48 3.2 -9.8369
974 4 20.8 46.4 4.8 -13.2194
1005 1 19.2 48 3.2 -11.6876
976 2 24 46.4 4.8 -9.75572
1007 2 22.4 48 3.2 -9.87226
1009 3 25.6 48 3.2 -11.3893
978 4 27.2 46.4 4.8 -13.3913
1011 2 28.8 48 3.2 -9.89771
980 1 30.4 46.4 4.8 -11.8227
1013 3 32 48 3.2 -11.4006
982 1 33.6 46.4 4.8 -11.8173
1015 2 35.2 48 3.2 -9.87758
984 2 36.8 46.4 4.8 -9.81959
1017 2 38.4 48 3.2 -9.9081
986 2 40 46.4 4.8 -9.86465
1019 2 41.6 48 3.2 -9.86099
988 2 43.2 46.4 4.8 -9.85125
1021 2 44.8 48 3.2 -9.7314
990 4 46.4 46.4 4.8 -13.2114
1023 4 48 48 3.2 -13.4285
992 2 49.6 46.4 4.8 -9.82004
994 3 1.6 49.6 4.8 -11.1829
996 2 4.8 49.6 4.8 -9.88125
998 1 8 49.6 4.8 -11.7411
1000 2 11.2 49.6 4.8 -9.97072
1002 3 14.4 49.6 4.8 -11.3402
1004 2 17.6 49.6 4.8 -9.78302
1006 3 20.8 49.6 4.8 -11.3386
1008 1 24 49.6 4.8 -11.8432
1010 3 27.2 49.6 4.8 -11.3429
1012 3 30.4 49.6 4.8 -11.3657
1014 2 33.6 49.6 4.8 -9.95967
1016 2 36.8 49.6 4.8 -9.93882
1018 3 40 49.6 4.8 -11.3902
1020 4 43.2 49.6 4.8 -13.3342
1022 2 46.4 49.6 4.8 -9.87622
1024 3 49.6 49.6 4.8 -11.3788
1025 2 0 0 6.4 -9.81597
1026 1 1.6 1.6 8 -11.7336
1027 1 3.2 0 6.4 -11.746
1028 3 4.8 1.6 8 -11.361
1029 2 6.4 0 6.4 -9.80328
1030 2 8 1.6 8 -9.82717
1031 2 9.6 0 6.4 -9.84739
1032 3 11.2 1.6 8 -11.354
1033 1 12.8 0 6.4 -11.8623
1034 3 14.4 1.6 8 -11.296
1035 1 16 0 6.4 -11.7834
1036 3 17.6 1.6 8 -11.2
1037 1 19.2 0 6.4 -11.8371
1038 2 20.8 1.6 8 -9.86321
1039 3 22.4 0 6.4 -11.3491
1040 2 24 1.6 8 -9.85641
1041 4 25.6 0 6.4 -13.4305
1042 3 27.2 1.6 8 -11.3259
1043 1 28.8 0 6.4 -11.7655
1044 2 30.4 1.6 8 -9.84902
1045 2 32 0 6.4 -9.92525
1046 2 33.6 1.6 8 -9.92019
1047 2 35.2 0 6.4 -9.90514
1048 3 36.8 1.6 8 -11.3779
1049 1 38.4 0 6.4 -11.8898
1050 3 40 1.6 8 -11.4789
1051 4 41.6 0 6.4 -13.4209
1052 3 43.2 1.6 8 -11.3171
1053 2 44.8 0 6.4 -9.89087
1054 4 46.4 1.6 8 -13.4727
1055 2 48 0 6.4 -9.97811
1056 1 49.6 1.6 8 -11.829
1057 2 0 3.2 6.4 -9.85468
1058 2 1.6 4.8 8 -9.86222
1059 3 3.2 3.2 6.4 -11.3697
1060 3 4.8 4.8 8 -11.4808
1061 1 6.4 3.2 6.4 -11.7531
1062 3 8 4.8 8 -11.2823
1063 4 9.6 3.2 6.4 -13.2762
1064 3 11.2 4.8 8 -11.4472
1065 2 12.8 3.2 6.4 -9.81756
1066 2 14.4 4.8 8 -9.94996
1067 1 16 3.2 6.4 -11.8204
1068 2 17.6 4.8 8 -9.85132
1069 1 19.2 3.2 6.4 -11.7898
1070 2 20.8 4.8 8 -9.78835
1071 1 22.4 3.2 6.4 -11.7236
1072 2 24 4.8 8 -9.70495
1073 1 25.6 3.2 6.4 -11.7638
1074 2 27.2 4.8 8 -9.78101
1075 1 28.8 3.2 6.4 -11.7295
1076 2 30.4 4.8 8 -9.84751
1077 1 32 3.2 6.4 -11.8037
1078 2 33.6 4.8 8 -9.84159
1079 2 35.2 3.2 6.4 -9.79427
1080 1 36.8 4.8 8 -11.7491
1081 2 38.4 3.2 6.4 -9.89873
1082 2 40 4.8 8 -9.87419
1083 2 41.6 3.2 6.4 -9.95945
1084 1 43.2 4.8 8 -11.847
1085 2 44.8 3.2 6.4 -9.92235
1086 3 46.4 4.8 8 -11.4213
1087 3 48 3.2 6.4 -11.38
1088 2 49.6 4.8 8 -9.92546
1089 1 0 6.4 6.4 -11.6809
1090 2 1.6 8 8 -9.87362
1091 2 3.2 6.4 6.4 -9.92687
1092 3 4.8 8 8 -11.3254
1093 1 6.4 6.4 6.4 -11.7952
1094 3 8 8 8 -11.3141
1095 3 9.6 6.4 6.4 -11.2938
1096 3 11.2 8 8 -11.4205
1097 1 12.8 6.4 6.4 -11.7687
1098 2 14.4 8 8 -9.79474
1099 3 16 6.4 6.4 -11.3759
1100 1 17.6 8 8 -11.835
1101 2 19.2 6.4 6.4 -9.87569
1102 4 20.8 8 8 -13.3942
1103 2 22.4 6.4 6.4 -9.80446