ITEM: TIMESTEP
0
ITEM: NUMBER OF ATOMS
8192
ITEM: BOX BOUNDS pp pp pp
0.0000000000000000e+00 5.1200000000000003e+01
0.0000000000000000e+00 5.1200000000000003e+01
0.0000000000000000e+00 5.1200000000000003e+01
ITEM: ATOMS id type x y z c_eng
1 1 0 0 0 -11.8556
2 3 1.6 1.6 1.6 -11.3073
3 1 3.2 0 0 -11.8254
4 3 4.8 1.6 1.6 -11.2678
5 1 6.4 0 0 -11.7741
6 2 8 1.6 1.6 -9.84647
7 2 9.6 0 0 -9.88268
8 2 11.2 1.6 1.6 -9.89931
9 2 12.8 0 0 -9.89865
10 2 14.4 1.6 1.6 -9.92837
11 2 16 0 0 -9.88076
12 2 17.6 1.6 1.6 -9.92037
13 1 19.2 0 0 -11.8316
14 2 20.8 1.6 1.6 -9.91059
15 2 22.4 0 0 -9.88095
16 2 24 1.6 1.6 -9.89287
17 2 25.6 0 0 -9.91577
18 2 27.2 1.6 1.6 -9.83074
19 2 28.8 0 0 -9.88312
20 2 30.4 1.6 1.6 -9.85933
21 2 32 0 0 -9.92842
22 2 33.6 1.6 1.6 -9.86507
23 4 35.2 0 0 -13.3846
24 2 36.8 1.6 1.6 -9.93668
25 2 38.4 0 0 -9.88417
26 2 40 1.6 1.6 -9.78279
27 1 41.6 0 0 -11.7719
28 3 43.2 1.6 1.6 -11.1996
29 4 44.8 0 0 -13.365
30 3 46.4 1.6 1.6 -11.3081
31 1 48 0 0 -11.8555
32 3 49.6 1.6 1.6 -11.338
33 1 0 3.2 0 -11.8553
34 3 1.6 4.8 1.6 -11.2702
35 1 3.2 3.2 0 -11.8189
36 2 4.8 4.8 1.6 -9.81672
37 2 6.4 3.2 0 -9.8273
38 1 8 4.8 1.6 -11.7198
39 2 9.6 3.2 0 -9.84114
40 1 11.2 4.8 1.6 -11.738
41 2 12.8 3.2 0 -9.90158
42 2 14.4 4.8 1.6 -9.87368
43 2 16 3.2 0 -9.91817
44 1 17.6 4.8 1.6 -11.7816
45 2 19.2 3.2 0 -9.8401
46 2 20.8 4.8 1.6 -9.88875
47 4 22.4 3.2 0 -13.396
48 3 24 4.8 1.6 -11.3867
49 2 25.6 3.2 0 -9.90582
50 2 27.2 4.8 1.6 -9.8897
51 2 28.8 3.2 0 -9.86494
52 2 30.4 4.8 1.6 -9.90051
53 2 32 3.2 0 -9.91222
54 2 33.6 4.8 1.6 -9.94376
55 2 35.2 3.2 0 -9.91757
56 3 36.8 4.8 1.6 -11.3596
57 2 38.4 3.2 0 -9.89439
58 2 40 4.8 1.6 -9.82007
59 1 41.6 3.2 0 -11.7281
60 2 43.2 4.8 1.6 -9.78255
61 1 44.8 3.2 0 -11.8423
62 3 46.4 4.8 1.6 -11.2726
63 1 48 3.2 0 -11.8555
64 3 49.6 4.8 1.6 -11.3051
65 1 0 6.4 0 -11.8415
66 3 1.6 8 1.6 -11.3362
67 1 3.2 6.4 0 -11.7857
68 3 4.8 8 1.6 -11.3777
69 2 6.4 6.4 0 -9.87529
70 2 8 8 1.6 -9.91445
71 2 9.6 6.4 0 -9.84078
72 2 11.2 8 1.6 -9.89433
73 2 12.8 6.4 0 -9.86523
74 2 14.4 8 1.6 -9.90464
75 4 16 6.4 0 -13.3708
76 2 17.6 8 1.6 -9.81388
77 2 19.2 6.4 0 -9.84027
78 2 20.8 8 1.6 -9.88171
79 2 22.4 6.4 0 -9.90005
80 4 24 8 1.6 -13.4254
81 2 25.6 6.4 0 -9.91177
82 2 27.2 8 1.6 -9.86572
83 4 28.8 6.4 0 -13.4509
84 2 30.4 8 1.6 -9.91284
85 3 32 6.4 0 -11.4398
86 4 33.6 8 1.6 -13.4395
87 4 35.2 6.4 0 -13.4501
88 2 36.8 8 1.6 -9.91113
89 2 38.4 6.4 0 -9.82916
90 2 40 8 1.6 -9.84956
91 1 41.6 6.4 0 -11.7972
92 2 43.2 8 1.6 -9.84821
93 4 44.8 6.4 0 -13.3505
94 3 46.4 8 1.6 -11.2691
95 1 48 6.4 0 -11.8553
96 3 49.6 8 1.6 -11.3099
97 4 0 9.6 0 -13.3736
98 3 1.6 11.2 1.6 -11.3743
99 2 3.2 9.6 0 -9.89372
100 2 4.8 11.2 1.6 -9.95226
101 2 6.4 9.6 0 -9.95094
102 2 8 11.2 1.6 -9.83269
103 2 9.6 9.6 0 -9.92009
104 2 11.2 11.2 1.6 -9.91421
105 2 12.8 9.6 0 -9.94569
106 4 14.4 11.2 1.6 -13.417
107 2 16 9.6 0 -9.85928
108 2 17.6 11.2 1.6 -9.88822
109 1 19.2 9.6 0 -11.7752
110 2 20.8 11.2 1.6 -9.87225
111 4 22.4 9.6 0 -13.3668
112 2 24 11.2 1.6 -9.90469
113 2 25.6 9.6 0 -9.88827
114 2 27.2 11.2 1.6 -9.85326
115 2 28.8 9.6 0 -9.83907
116 2 30.4 11.2 1.6 -9.90812
117 3 32 9.6 0 -11.4375
118 4 33.6 11.2 1.6 -13.4418
119 2 35.2 9.6 0 -9.90181
120 2 36.8 11.2 1.6 -9.87022
121 2 38.4 9.6 0 -9.89901
122 2 40 11.2 1.6 -9.86269
123 4 41.6 9.6 0 -13.3679
124 2 43.2 11.2 1.6 -9.85763
125 2 44.8 9.6 0 -9.85601
126 2 46.4 11.2 1.6 -9.93169
127 1 48 9.6 0 -11.8603
128 3 49.6 11.2 1.6 -11.2539
129 2 0 12.8 0 -9.87088
130 2 1.6 14.4 1.6 -9.84477
131 2 3.2 12.8 0 -9.91427
132 2 4.8 14.4 1.6 -9.88305
133 2 6.4 12.8 0 -9.87822
134 2 8 14.4 1.6 -9.83275
135 4 9.6 12.8 0 -13.3663
136 2 11.2 14.4 1.6 -9.92301
137 2 12.8 12.8 0 -9.92149
138 2 14.4 14.4 1.6 -9.89518
139 2 16 12.8 0 -9.92022
140 2 17.6 14.4 1.6 -9.92918
141 2 19.2 12.8 0 -9.88912
142 2 20.8 14.4 1.6 -9.91393
143 2 22.4 12.8 0 -9.90624
144 2 24 14.4 1.6 -9.87398
145 2 25.6 12.8 0 -9.90816
146 1 27.2 14.4 1.6 -11.7932
147 2 28.8 12.8 0 -9.91638
148 2 30.4 14.4 1.6 -9.90172
149 3 32 12.8 0 -11.4298
150 2 33.6 14.4 1.6 -9.81303
151 2 35.2 12.8 0 -9.86754
152 1 36.8 14.4 1.6 -11.8021
153 2 38.4 12.8 0 -9.81085
154 1 40 14.4 1.6 -11.7583
155 2 41.6 12.8 0 -9.81193
156 1 43.2 14.4 1.6 -11.8156
157 2 44.8 12.8 0 -9.89995
158 4 46.4 14.4 1.6 -13.3304
159 2 48 12.8 0 -9.82997
160 1 49.6 14.4 1.6 -11.7762
161 3 0 16 0 -11.2024
162 1 1.6 17.6 1.6 -11.8606
163 2 3.2 16 0 -9.88911
164 2 4.8 17.6 1.6 -9.92413
165 2 6.4 16 0 -9.93691
166 2 8 17.6 1.6 -9.91162
167 2 9.6 16 0 -9.90933
168 2 11.2 17.6 1.6 -9.87813
169 2 12.8 16 0 -9.87422
170 1 14.4 17.6 1.6 -11.7292
171 2 16 16 0 -9.85336
172 2 17.6 17.6 1.6 -9.81354
173 1 19.2 16 0 -11.7747
174 2 20.8 17.6 1.6 -9.75101
175 2 22.4 16 0 -9.88304
176 2 24 17.6 1.6 -9.90182
177 2 25.6 16 0 -9.92627
178 2 27.2 17.6 1.6 -9.82568
179 2 28.8 16 0 -9.89642
180 1 30.4 17.6 1.6 -11.8088
181 2 32 16 0 -9.88162
182 1 33.6 17.6 1.6 -11.8258
183 3 35.2 16 0 -11.2718
184 4 36.8 17.6 1.6 -13.3645
185 3 38.4 16 0 -11.2384
186 1 40 17.6 1.6 -11.8557
187 3 41.6 16 0 -11.2042
188 1 43.2 17.6 1.6 -11.8556
189 3 44.8 16 0 -11.24
190 1 46.4 17.6 1.6 -11.8555
191 3 48 16 0 -11.2408
192 1 49.6 17.6 1.6 -11.8251
193 3 0 19.2 0 -11.3081
194 4 1.6 20.8 1.6 -13.4568
195 3 3.2 19.2 0 -11.399
196 2 4.8 20.8 1.6 -9.95352
197 2 6.4 19.2 0 -9.84612
198 2 8 20.8 1.6 -9.7855
199 1 9.6 19.2 0 -11.7227
200 2 11.2 20.8 1.6 -9.81403
201 4 12.8 19.2 0 -13.2887
202 4 14.4 20.8 1.6 -13.2496
203 2 16 19.2 0 -9.83259
204 2 17.6 20.8 1.6 -9.84731
205 1 19.2 19.2 0 -11.7013
206 2 20.8 20.8 1.6 -9.79952
207 1 22.4 19.2 0 -11.7385
208 2 24 20.8 1.6 -9.83611
209 2 25.6 19.2 0 -9.9225
210 4 27.2 20.8 1.6 -13.4182
211 3 28.8 19.2 0 -11.3749
212 4 30.4 20.8 1.6 -13.3702
213 3 32 19.2 0 -11.2295
214 1 33.6 20.8 1.6 -11.7867
215 3 35.2 19.2 0 -11.2761
216 1 36.8 20.8 1.6 -11.8557
217 3 38.4 19.2 0 -11.2753
218 1 40 20.8 1.6 -11.8414
219 3 41.6 19.2 0 -11.2414
220 1 43.2 20.8 1.6 -11.8553
221 3 44.8 19.2 0 -11.2417
222 1 46.4 20.8 1.6 -11.8572
223 3 48 19.2 0 -11.2391
224 4 49.6 20.8 1.6 -13.397
225 3 0 22.4 0 -11.296
226 4 1.6 24 1.6 -13.4369
227 2 3.2 22.4 0 -9.95341
228 3 4.8 24 1.6 -11.3467
229 1 6.4 22.4 0 -11.8378
230 3 8 24 1.6 -11.2677
231 1 9.6 22.4 0 -11.7228
232 2 11.2 24 1.6 -9.92515
233 2 12.8 22.4 0 -9.89056
234 2 14.4 24 1.6 -9.9405
235 4 16 22.4 0 -13.3909
236 2 17.6 24 1.6 -9.87069
237 2 19.2 22.4 0 -9.86498
238 2 20.8 24 1.6 -9.85888
239 2 22.4 22.4 0 -9.88112
240 1 24 24 1.6 -11.7752
241 2 25.6 22.4 0 -9.88626
242 4 27.2 24 1.6 -13.3639
243 2 28.8 22.4 0 -9.92761
244 2 30.4 24 1.6 -9.85893
245 2 32 22.4 0 -9.88743
246 4 33.6 24 1.6 -13.3584
247 3 35.2 22.4 0 -11.24
248 1 36.8 24 1.6 -11.8557
249 3 38.4 22.4 0 -11.2414
250 1 40 24 1.6 -11.8434
251 3 41.6 22.4 0 -11.2756
252 4 43.2 24 1.6 -13.4367
253 3 44.8 22.4 0 -11.3033
254 2 46.4 24 1.6 -9.87136
255 2 48 22.4 0 -9.83388
256 4 49.6 24 1.6 -13.3933
257 2 0 25.6 0 -9.89117
259 2 3.2 25.6 0 -9.90905
261 2 6.4 25.6 0 -9.82479
263 1 9.6 25.6 0 -11.8121
265 4 12.8 25.6 0 -13.467
267 2 16 25.6 0 -9.8745
269 1 19.2 25.6 0 -11.7752
271 2 22.4 25.6 0 -9.78056
273 2 25.6 25.6 0 -9.86629
275 2 28.8 25.6 0 -9.91298
277 3 32 25.6 0 -11.3264
279 3 35.2 25.6 0 -11.2381
281 3 38.4 25.6 0 -11.2423
283 3 41.6 25.6 0 -11.2696
285 3 44.8 25.6 0 -11.3239
287 2 48 25.6 0 -9.83306
258 2 1.6 27.2 1.6 -9.83797
289 2 0 28.8 0 -9.82894
260 3 4.8 27.2 1.6 -11.3237
291 4 3.2 28.8 0 -13.3692
262 3 8 27.2 1.6 -11.337
293 4 6.4 28.8 0 -13.4039
264 3 11.2 27.2 1.6 -11.3203
295 1 9.6 28.8 0 -11.8012
266 2 14.4 27.2 1.6 -9.94319
297 4 12.8 28.8 0 -13.3766
268 2 17.6 27.2 1.6 -9.85707
299 2 16 28.8 0 -9.92076
270 2 20.8 27.2 1.6 -9.76667
301 2 19.2 28.8 0 -9.8028
272 2 24 27.2 1.6 -9.85911
303 1 22.4 28.8 0 -11.7747
305 2 25.6 28.8 0 -9.88071
274 2 27.2 27.2 1.6 -9.89585
307 2 28.8 28.8 0 -9.88541
276 4 30.4 27.2 1.6 -13.4021
309 3 32 28.8 0 -11.2729
278 1 33.6 27.2 1.6 -11.8695
311 3 35.2 28.8 0 -11.242
280 1 36.8 27.2 1.6 -11.8415
313 3 38.4 28.8 0 -11.2386
282 1 40 27.2 1.6 -11.8037
315 2 41.6 28.8 0 -9.89199
284 2 43.2 27.2 1.6 -9.87375
317 2 44.8 28.8 0 -9.92957
286 2 46.4 27.2 1.6 -9.92977
319 2 48 28.8 0 -9.85929
288 2 49.6 27.2 1.6 -9.87693
290 2 1.6 30.4 1.6 -9.78802
321 1 0 32 0 -11.7888
292 2 4.8 30.4 1.6 -9.86407
323 2 3.2 32 0 -9.85587
294 3 8 30.4 1.6 -11.2707
325 4 6.4 32 0 -13.4005
296 3 11.2 30.4 1.6 -11.2742
327 1 9.6 32 0 -11.8433
298 2 14.4 30.4 1.6 -9.90749
329 1 12.8 32 0 -11.7742
300 2 17.6 30.4 1.6 -9.89904
331 2 16 32 0 -9.85349
302 2 20.8 30.4 1.6 -9.85715
333 2 19.2 32 0 -9.9183
304 2 24 30.4 1.6 -9.85918
335 2 22.4 32 0 -9.88079
337 2 25.6 32 0 -9.83901
306 2 27.2 30.4 1.6 -9.8896
339 3 28.8 32 0 -11.2695
308 4 30.4 30.4 1.6 -13.4238
341 3 32 32 0 -11.2756
310 1 33.6 30.4 1.6 -11.8555
343 3 35.2 32 0 -11.3049
312 1 36.8 30.4 1.6 -11.7979
345 2 38.4 32 0 -9.8443
314 1 40 30.4 1.6 -11.7668
347 2 41.6 32 0 -9.88466
316 2 43.2 30.4 1.6 -9.88098
349 4 44.8 32 0 -13.3485
318 2 46.4 30.4 1.6 -9.88361
351 1 48 32 0 -11.7746
320 2 49.6 30.4 1.6 -9.78329
322 3 1.6 33.6 1.6 -11.3282
353 1 0 35.2 0 -11.8678
324 2 4.8 33.6 1.6 -9.91978
355 1 3.2 35.2 0 -11.843
326 3 8 33.6 1.6 -11.2979
357 4 6.4 35.2 0 -13.3785
328 3 11.2 33.6 1.6 -11.1246
359 1 9.6 35.2 0 -11.8152
330 2 14.4 33.6 1.6 -9.78313
361 1 12.8 35.2 0 -11.7283
332 2 17.6 33.6 1.6 -9.92633
363 1 16 35.2 0 -11.7744
334 2 20.8 33.6 1.6 -9.89196
365 2 19.2 35.2 0 -9.88296
336 1 24 33.6 1.6 -11.7411
367 2 22.4 35.2 0 -9.90329
369 2 25.6 35.2 0 -9.71942
338 1 27.2 33.6 1.6 -11.7535
371 3 28.8 35.2 0 -11.1991
340 1 30.4 33.6 1.6 -11.8254
373 3 32 35.2 0 -11.2759
342 1 33.6 33.6 1.6 -11.8551
375 3 35.2 35.2 0 -11.3604
344 4 36.8 33.6 1.6 -13.3448
377 2 38.4 35.2 0 -9.9075
346 4 40 33.6 1.6 -13.3094
379 2 41.6 35.2 0 -9.87793
348 2 43.2 33.6 1.6 -9.88886
381 1 44.8 35.2 0 -11.8046
350 3 46.4 33.6 1.6 -11.2727
383 1 48 35.2 0 -11.8411
352 3 49.6 33.6 1.6 -11.2361
354 3 1.6 36.8 1.6 -11.3023
385 1 0 38.4 0 -11.841
356 2 4.8 36.8 1.6 -9.88857
387 1 3.2 38.4 0 -11.8436
358 2 8 36.8 1.6 -9.89094
389 4 6.4 38.4 0 -13.3829
360 2 11.2 36.8 1.6 -9.86929
391 2 9.6 38.4 0 -9.8653
362 2 14.4 36.8 1.6 -9.83309
393 2 12.8 38.4 0 -9.94329
364 2 17.6 36.8 1.6 -9.86063
395 2 16 38.4 0 -9.81204
366 4 20.8 36.8 1.6 -13.4235
397 2 19.2 38.4 0 -9.87831
368 4 24 36.8 1.6 -13.3094
399 3 22.4 38.4 0 -11.3851
401 3 25.6 38.4 0 -11.3557
370 1 27.2 36.8 1.6 -11.7695
403 3 28.8 38.4 0 -11.333
372 1 30.4 36.8 1.6 -11.8086
405 3 32 38.4 0 -11.3968
374 1 33.6 36.8 1.6 -11.8606
407 3 35.2 38.4 0 -11.394
376 4 36.8 36.8 1.6 -13.4311
409 2 38.4 38.4 0 -9.91356
378 2 40 36.8 1.6 -9.86021
411 4 41.6 38.4 0 -13.3686
380 2 43.2 36.8 1.6 -9.88679
413 1 44.8 38.4 0 -11.7861
382 3 46.4 36.8 1.6 -11.3357
415 1 48 38.4 0 -11.8557
384 3 49.6 36.8 1.6 -11.3083
386 3 1.6 40 1.6 -11.3087
417 1 0 41.6 0 -11.8566
388 3 4.8 40 1.6 -11.2667
419 1 3.2 41.6 0 -11.8412
390 2 8 40 1.6 -9.90927
421 1 6.4 41.6 0 -11.7973
392 3 11.2 40 1.6 -11.4056
423 1 9.6 41.6 0 -11.8309
394 1 14.4 40 1.6 -11.8365
425 3 12.8 41.6 0 -11.366
396 1 17.6 40 1.6 -11.7466
427 3 16 41.6 0 -11.2323
398 4 20.8 40 1.6 -13.3441
429 2 19.2 41.6 0 -9.77539
400 2 24 40 1.6 -9.90438
431 3 22.4 41.6 0 -11.3011
433 3 25.6 41.6 0 -11.4076
402 3 27.2 40 1.6 -11.4006
435 2 28.8 41.6 0 -9.85527
404 4 30.4 40 1.6 -13.3919
437 3 32 41.6 0 -11.3173
406 2 33.6 40 1.6 -9.89925
439 2 35.2 41.6 0 -9.90179
408 3 36.8 40 1.6 -11.368
441 1 38.4 41.6 0 -11.7978
410 4 40 40 1.6 -13.3451
443 2 41.6 41.6 0 -9.81202
412 2 43.2 40 1.6 -9.84414
445 1 44.8 41.6 0 -11.8459
414 3 46.4 40 1.6 -11.3047
447 1 48 41.6 0 -11.8114
416 3 49.6 40 1.6 -11.3068
418 3 1.6 43.2 1.6 -11.3042
449 1 0 44.8 0 -11.8275
420 3 4.8 43.2 1.6 -11.3083
451 1 3.2 44.8 0 -11.8554
422 3 8 43.2 1.6 -11.3833
453 1 6.4 44.8 0 -11.8824
424 2 11.2 43.2 1.6 -9.94796
455 2 9.6 44.8 0 -9.85475
426 4 14.4 43.2 1.6 -13.4018
457 2 12.8 44.8 0 -9.97028
428 1 17.6 43.2 1.6 -11.7665
459 3 16 44.8 0 -11.2916
430 1 20.8 43.2 1.6 -11.8212
461 3 19.2 44.8 0 -11.2645
432 1 24 43.2 1.6 -11.8455
463 3 22.4 44.8 0 -11.3255
465 2 25.6 44.8 0 -9.91146
434 2 27.2 43.2 1.6 -9.88547
467 2 28.8 44.8 0 -9.83773
436 1 30.4 43.2 1.6 -11.765
469 2 32 44.8 0 -9.86425
438 4 33.6 43.2 1.6 -13.35
471 1 35.2 44.8 0 -11.7877
440 2 36.8 43.2 1.6 -9.84031
473 1 38.4 44.8 0 -11.801
442 2 40 43.2 1.6 -9.87239
475 4 41.6 44.8 0 -13.3803
444 2 43.2 43.2 1.6 -9.86815
477 4 44.8 44.8 0 -13.3587
446 3 46.4 43.2 1.6 -11.2372
479 1 48 44.8 0 -11.8608
448 2 49.6 43.2 1.6 -9.82838
450 3 1.6 46.4 1.6 -11.3081
481 1 0 48 0 -11.8555
452 3 4.8 46.4 1.6 -11.3681
483 4 3.2 48 0 -13.365
454 3 8 46.4 1.6 -11.4014
485 1 6.4 48 0 -11.8397
456 2 11.2 46.4 1.6 -9.94337
487 2 9.6 48 0 -9.89481
458 2 14.4 46.4 1.6 -9.86018
489 4 12.8 48 0 -13.3377
460 1 17.6 46.4 1.6 -11.7994
491 2 16 48 0 -9.85214
462 2 20.8 46.4 1.6 -9.88389
493 2 19.2 48 0 -9.87907
464 2 24 46.4 1.6 -9.86681
495 2 22.4 48 0 -9.95964
497 2 25.6 48 0 -9.85317
466 2 27.2 46.4 1.6 -9.88445
499 1 28.8 48 0 -11.7772
468 2 30.4 46.4 1.6 -9.881
501 2 32 48 0 -9.8831
470 2 33.6 46.4 1.6 -9.91818
503 2 35.2 48 0 -9.84847
472 2 36.8 46.4 1.6 -9.91197
505 1 38.4 48 0 -11.8275
474 3 40 46.4 1.6 -11.2304
507 1 41.6 48 0 -11.7935
476 3 43.2 46.4 1.6 -11.3059
509 1 44.8 48 0 -11.884
478 3 46.4 46.4 1.6 -11.3392
511 1 48 48 0 -11.8552
480 3 49.6 46.4 1.6 -11.2728
482 3 1.6 49.6 1.6 -11.3079
484 3 4.8 49.6 1.6 -11.3397
486 3 8 49.6 1.6 -11.3211
488 2 11.2 49.6 1.6 -9.88736
490 1 14.4 49.6 1.6 -11.7635
492 2 17.6 49.6 1.6 -9.85307
494 2 20.8 49.6 1.6 -9.94799
496 2 24 49.6 1.6 -9.90716
498 2 27.2 49.6 1.6 -9.81777
500 2 30.4 49.6 1.6 -9.86516
502 2 33.6 49.6 1.6 -9.92686
504 3 36.8 49.6 1.6 -11.4002
506 2 40 49.6 1.6 -9.80833
508 3 43.2 49.6 1.6 -11.2347
510 3 46.4 49.6 1.6 -11.339
512 3 49.6 49.6 1.6 -11.3086
513 4 0 0 3.2 -13.3833
514 3 1.6 1.6 4.8 -11.3076
515 1 3.2 0 3.2 -11.8697
516 3 4.8 1.6 4.8 -11.3026
517 4 6.4 0 3.2 -13.3711
518 2 8 1.6 4.8 -9.87434
519 1 9.6 0 3.2 -11.7671
520 2 11.2 1.6 4.8 -9.90157
521 2 12.8 0 3.2 -9.89929
522 2 14.4 1.6 4.8 -9.96252
523 2 16 0 3.2 -9.94881
524 3 17.6 1.6 4.8 -11.3687
525 2 19.2 0 3.2 -9.876
526 2 20.8 1.6 4.8 -9.85977
527 4 22.4 0 3.2 -13.4048
528 3 24 1.6 4.8 -11.2715
529 1 25.6 0 3.2 -11.774
530 3 27.2 1.6 4.8 -11.1654
531 1 28.8 0 3.2 -11.7643
532 3 30.4 1.6 4.8 -11.1936
533 4 32 0 3.2 -13.3131
534 2 33.6 1.6 4.8 -9.85048
535 1 35.2 0 3.2 -11.7907
536 2 36.8 1.6 4.8 -9.89486
537 2 38.4 0 3.2 -9.83879
538 2 40 1.6 4.8 -9.90508
539 1 41.6 0 3.2 -11.7625
540 3 43.2 1.6 4.8 -11.2969
541 1 44.8 0 3.2 -11.8573
542 3 46.4 1.6 4.8 -11.3395
543 1 48 0 3.2 -11.8838
544 3 49.6 1.6 4.8 -11.3037
545 4 0 3.2 3.2 -13.404
546 3 1.6 4.8 4.8 -11.2732
547 1 3.2 3.2 3.2 -11.8417
548 3 4.8 4.8 4.8 -11.2676
549 4 6.4 3.2 3.2 -13.3298
550 2 8 4.8 4.8 -9.88476
551 2 9.6 3.2 3.2 -9.83351
552 2 11.2 4.8 4.8 -9.86728
553 2 12.8 3.2 3.2 -9.94099
554 2 14.4 4.8 4.8 -9.90477
555 2 16 3.2 3.2 -9.91248
556 2 17.6 4.8 4.8 -9.83816
557 2 19.2 3.2 3.2 -9.91265
558 2 20.8 4.8 4.8 -9.90872
559 2 22.4 3.2 3.2 -9.8716
560 3 24 4.8 4.8 -11.3556
561 1 25.6 3.2 3.2 -11.7969
562 2 27.2 4.8 4.8 -9.85792
563 1 28.8 3.2 3.2 -11.7338
564 2 30.4 4.8 4.8 -9.8307
565 1 32 3.2 3.2 -11.7543
566 2 33.6 4.8 4.8 -9.87001
567 2 35.2 3.2 3.2 -9.85098
568 2 36.8 4.8 4.8 -9.86664
569 1 38.4 3.2 3.2 -11.7983
570 3 40 4.8 4.8 -11.261
571 1 41.6 3.2 3.2 -11.7653
572 3 43.2 4.8 4.8 -11.337
573 1 44.8 3.2 3.2 -11.839
574 3 46.4 4.8 4.8 -11.2731
575 4 48 3.2 3.2 -13.3609
576 2 49.6 4.8 4.8 -9.82955
577 4 0 6.4 3.2 -13.3609
578 3 1.6 8 4.8 -11.2703
579 1 3.2 6.4 3.2 -11.841
580 3 4.8 8 4.8 -11.4149
581 4 6.4 6.4 3.2 -13.3914
582 2 8 8 4.8 -9.86806
583 2 9.6 6.4 3.2 -9.84643
584 1 11.2 8 4.8 -11.789
585 2 12.8 6.4 3.2 -9.89077
586 4 14.4 8 4.8 -13.3582
587 2 16 6.4 3.2 -9.86744
588 1 17.6 8 4.8 -11.7905
589 2 19.2 6.4 3.2 -9.8852
590 2 20.8 8 4.8 -9.85905
591 2 22.4 6.4 3.2 -9.91537
592 2 24 8 4.8 -9.92875
593 4 25.6 6.4 3.2 -13.4275
594 2 27.2 8 4.8 -9.88739
595 2 28.8 6.4 3.2 -9.83954
596 2 30.4 8 4.8 -9.90716
597 2 32 6.4 3.2 -9.91882
598 2 33.6 8 4.8 -9.90736
599 2 35.2 6.4 3.2 -9.86144
600 2 36.8 8 4.8 -9.83876
601 1 38.4 6.4 3.2 -11.808
602 3 40 8 4.8 -11.3043
603 2 41.6 6.4 3.2 -9.73417
604 3 43.2 8 4.8 -11.1963
605 1 44.8 6.4 3.2 -11.8313
606 3 46.4 8 4.8 -11.2435
607 1 48 6.4 3.2 -11.8438
608 3 49.6 8 4.8 -11.2375
609 1 0 9.6 3.2 -11.8417
610 2 1.6 11.2 4.8 -9.84477
611 1 3.2 9.6 3.2 -11.8723
612 3 4.8 11.2 4.8 -11.2832
613 2 6.4 9.6 3.2 -9.88205
614 4 8 11.2 4.8 -13.2889
615 2 9.6 9.6 3.2 -9.90592
616 2 11.2 11.2 4.8 -9.81563
617 3 12.8 9.6 3.2 -11.3838
618 2 14.4 11.2 4.8 -9.91721
619 2 16 9.6 3.2 -9.91104
620 2 17.6 11.2 4.8 -9.86977
621 4 19.2 9.6 3.2 -13.3426
622 2 20.8 11.2 4.8 -9.92643
623 2 22.4 9.6 3.2 -9.86868
624 2 24 11.2 4.8 -9.89667
625 2 25.6 9.6 3.2 -9.8921
626 2 27.2 11.2 4.8 -9.90692
627 1 28.8 9.6 3.2 -11.7856
628 3 30.4 11.2 4.8 -11.3588
629 4 32 9.6 3.2 -13.4011
630 2 33.6 11.2 4.8 -9.91564
631 2 35.2 9.6 3.2 -9.89918
632 2 36.8 11.2 4.8 -9.92407
633 4 38.4 9.6 3.2 -13.3702
634 3 40 11.2 4.8 -11.3411
635 1 41.6 9.6 3.2 -11.7904
636 2 43.2 11.2 4.8 -9.86092
637 1 44.8 9.6 3.2 -11.8069
638 3 46.4 11.2 4.8 -11.2556
639 1 48 9.6 3.2 -11.8005
640 2 49.6 11.2 4.8 -9.8646
641 4 0 12.8 3.2 -13.3493
642 2 1.6 14.4 4.8 -9.86423
643 4 3.2 12.8 3.2 -13.3196
644 2 4.8 14.4 4.8 -9.82555
645 1 6.4 12.8 3.2 -11.7044
646 4 8 14.4 4.8 -13.2751
647 1 9.6 12.8 3.2 -11.6741
648 2 11.2 14.4 4.8 -9.91392
649 2 12.8 12.8 3.2 -9.91869
650 2 14.4 14.4 4.8 -9.8935
651 4 16 12.8 3.2 -13.4201
652 2 17.6 14.4 4.8 -9.91572
653 2 19.2 12.8 3.2 -9.88607
654 2 20.8 14.4 4.8 -9.91818
655 1 22.4 12.8 3.2 -11.7813
656 4 24 14.4 4.8 -13.3711
657 2 25.6 12.8 3.2 -9.86011
658 4 27.2 14.4 4.8 -13.275
659 2 28.8 12.8 3.2 -9.89247
660 2 30.4 14.4 4.8 -9.89738
661 2 32 12.8 3.2 -9.95925
662 1 33.6 14.4 4.8 -11.8246
663 2 35.2 12.8 3.2 -9.86865
664 1 36.8 14.4 4.8 -11.7615
665 2 38.4 12.8 3.2 -9.82913
666 1 40 14.4 4.8 -11.793
667 2 41.6 12.8 3.2 -9.86046
668 4 43.2 14.4 4.8 -13.4005
669 3 44.8 12.8 3.2 -11.2947
670 4 46.4 14.4 4.8 -13.468
671 4 48 12.8 3.2 -13.397
672 2 49.6 14.4 4.8 -9.81022
673 2 0 16 3.2 -9.86628
674 2 1.6 17.6 4.8 -9.86834
675 2 3.2 16 3.2 -9.87805
676 2 4.8 17.6 4.8 -9.91714
677 4 6.4 16 3.2 -13.3325
678 2 8 17.6 4.8 -9.90908
679 2 9.6 16 3.2 -9.91322
680 2 11.2 17.6 4.8 -9.91338
681 2 12.8 16 3.2 -9.90167
682 1 14.4 17.6 4.8 -11.7388
683 2 16 16 3.2 -9.88097
684 2 17.6 17.6 4.8 -9.85344
685 2 19.2 16 3.2 -9.88307
686 2 20.8 17.6 4.8 -9.85707
687 2 22.4 16 3.2 -9.87386
688 2 24 17.6 4.8 -9.85901
689 2 25.6 16 3.2 -9.88651
690 4 27.2 17.6 4.8 -13.4219
691 2 28.8 16 3.2 -9.89307
692 2 30.4 17.6 4.8 -9.87606
693 3 32 16 3.2 -11.3137
694 1 33.6 17.6 4.8 -11.7756
695 3 35.2 16 3.2 -11.3085
696 1 36.8 17.6 4.8 -11.7972
697 3 38.4 16 3.2 -11.1993
698 1 40 17.6 4.8 -11.8552
699 3 41.6 16 3.2 -11.272
700 4 43.2 17.6 4.8 -13.3816
701 3 44.8 16 3.2 -11.3688
702 1 46.4 17.6 4.8 -11.8691
703 3 48 16 3.2 -11.2689
704 1 49.6 17.6 4.8 -11.8332
705 3 0 19.2 3.2 -11.408
706 3 1.6 20.8 4.8 -11.4718
707 3 3.2 19.2 3.2 -11.4252
708 3 4.8 20.8 4.8 -11.3991
709 4 6.4 19.2 3.2 -13.4206
710 3 8 20.8 4.8 -11.2941
711 2 9.6 19.2 3.2 -9.82894
712 2 11.2 20.8 4.8 -9.89121
713 2 12.8 19.2 3.2 -9.80453
714 1 14.4 20.8 4.8 -11.7133
715 2 16 19.2 3.2 -9.75777
716 2 17.6 20.8 4.8 -9.85928
717 1 19.2 19.2 3.2 -11.7393
718 2 20.8 20.8 4.8 -9.85692
719 1 22.4 19.2 3.2 -11.7037
720 2 24 20.8 4.8 -9.90177
721 2 25.6 19.2 3.2 -9.9019
722 2 27.2 20.8 4.8 -9.92842
723 2 28.8 19.2 3.2 -9.91446
724 2 30.4 20.8 4.8 -9.85887
725 2 32 19.2 3.2 -9.81066
726 1 33.6 20.8 4.8 -11.6964
727 3 35.2 19.2 3.2 -11.1991
728 1 36.8 20.8 4.8 -11.7508
729 3 38.4 19.2 3.2 -11.2761
730 1 40 20.8 4.8 -11.8274
731 3 41.6 19.2 3.2 -11.2753
732 1 43.2 20.8 4.8 -11.8713
733 3 44.8 19.2 3.2 -11.2756
734 1 46.4 20.8 4.8 -11.828
735 3 48 19.2 3.2 -11.3078
736 4 49.6 20.8 4.8 -13.4269
737 3 0 22.4 3.2 -11.4465
738 3 1.6 24 4.8 -11.3688
739 2 3.2 22.4 3.2 -9.93843
740 2 4.8 24 4.8 -9.93225
741 1 6.4 22.4 3.2 -11.8141
742 3 8 24 4.8 -11.3269
743 1 9.6 22.4 3.2 -11.8199
744 3 11.2 24 4.8 -11.4165
745 2 12.8 22.4 3.2 -9.89184
746 2 14.4 24 4.8 -9.91615
747 4 16 22.4 3.2 -13.3347
748 2 17.6 24 4.8 -9.92636
749 2 19.2 22.4 3.2 -9.86494
750 2 20.8 24 4.8 -9.94097
751 2 22.4 22.4 3.2 -9.89937
752 2 24 24 4.8 -9.90923
753 2 25.6 22.4 3.2 -9.90526
754 2 27.2 24 4.8 -9.86603
755 2 28.8 22.4 3.2 -9.89292
756 1 30.4 24 4.8 -11.7401
757 2 32 22.4 3.2 -9.81719
758 1 33.6 24 4.8 -11.7728
759 3 35.2 22.4 3.2 -11.2013
760 1 36.8 24 4.8 -11.7958
761 3 38.4 22.4 3.2 -11.2397
762 4 40 24 4.8 -13.4039
763 3 41.6 22.4 3.2 -11.3354
764 2 43.2 24 4.8 -9.89092
765 3 44.8 22.4 3.2 -11.3575
766 2 46.4 24 4.8 -9.90344
767 3 48 22.4 3.2 -11.382
768 4 49.6 24 4.8 -13.4497
769 2 0 25.6 3.2 -9.87621
771 1 3.2 25.6 3.2 -11.8262
773 1 6.4 25.6 3.2 -11.8662
775 4 9.6 25.6 3.2 -13.4254
777 3 12.8 25.6 3.2 -11.3714
779 2 16 25.6 3.2 -9.9139
781 1 19.2 25.6 3.2 -11.7382
783 2 22.4 25.6 3.2 -9.85338
785 2 25.6 25.6 3.2 -9.91016
787 2 28.8 25.6 3.2 -9.86834
789 3 32 25.6 3.2 -11.2613
791 3 35.2 25.6 3.2 -11.2764
793 3 38.4 25.6 3.2 -11.2734
795 2 41.6 25.6 3.2 -9.89059
797 4 44.8 25.6 3.2 -13.4518
799 2 48 25.6 3.2 -9.9442
770 2 1.6 27.2 4.8 -9.90386
801 1 0 28.8 3.2 -11.7407
772 3 4.8 27.2 4.8 -11.289
803 1 3.2 28.8 3.2 -11.7287
774 3 8 27.2 4.8 -11.3617
805 1 6.4 28.8 3.2 -11.8418
776 2 11.2 27.2 4.8 -9.93481
807 1 9.6 28.8 3.2 -11.8426
778 4 14.4 27.2 4.8 -13.4548
809 4 12.8 28.8 3.2 -13.4392
780 2 17.6 27.2 4.8 -9.88074
811 2 16 28.8 3.2 -9.90795
782 2 20.8 27.2 4.8 -9.83562
813 1 19.2 28.8 3.2 -11.7388
784 2 24 27.2 4.8 -9.88508
815 1 22.4 28.8 3.2 -11.7388
817 2 25.6 28.8 3.2 -9.8888
786 4 27.2 27.2 4.8 -13.3433
819 3 28.8 28.8 3.2 -11.3982
788 1 30.4 27.2 4.8 -11.7691
821 3 32 28.8 3.2 -11.339
790 1 33.6 27.2 4.8 -11.817
823 3 35.2 28.8 3.2 -11.2042
792 1 36.8 27.2 4.8 -11.7955
825 3 38.4 28.8 3.2 -11.1997
794 4 40 27.2 4.8 -13.3774
827 2 41.6 28.8 3.2 -9.88498
796 2 43.2 27.2 4.8 -9.92782
829 2 44.8 28.8 3.2 -9.89868
798 2 46.4 27.2 4.8 -9.9363
831 2 48 28.8 3.2 -9.8478
800 2 49.6 27.2 4.8 -9.88724
802 2 1.6 30.4 4.8 -9.78361
833 1 0 32 3.2 -11.7037
804 2 4.8 30.4 4.8 -9.88605
835 4 3.2 32 3.2 -13.3112
806 3 8 30.4 4.8 -11.2981
837 4 6.4 32 3.2 -13.3749
808 3 11.2 30.4 4.8 -11.232
839 1 9.6 32 3.2 -11.7955
810 3 14.4 30.4 4.8 -11.337
841 1 12.8 32 3.2 -11.7696
812 2 17.6 30.4 4.8 -9.93233
843 2 16 32 3.2 -9.91878
814 2 20.8 30.4 4.8 -9.87076
845 2 19.2 32 3.2 -9.8861
816 2 24 30.4 4.8 -9.89147
847 2 22.4 32 3.2 -9.87692
849 2 25.6 32 3.2 -9.92387
818 2 27.2 30.4 4.8 -9.92448
851 3 28.8 32 3.2 -11.4106
820 4 30.4 30.4 4.8 -13.44
853 3 32 32 3.2 -11.3076
822 1 33.6 30.4 4.8 -11.8106
855 3 35.2 32 3.2 -11.2364
824 1 36.8 30.4 4.8 -11.7647
857 2 38.4 32 3.2 -9.78898
826 4 40 30.4 4.8 -13.3463
859 2 41.6 32 3.2 -9.8611
828 2 43.2 30.4 4.8 -9.92846
861 1 44.8 32 3.2 -11.8384
830 3 46.4 30.4 4.8 -11.2865
863 1 48 32 3.2 -11.7552
832 2 49.6 30.4 4.8 -9.75751
834 2 1.6 33.6 4.8 -9.88897
865 2 0 35.2 3.2 -9.81208
836 2 4.8 33.6 4.8 -9.92512
867 4 3.2 35.2 3.2 -13.3971
838 2 8 33.6 4.8 -9.86269
869 2 6.4 35.2 3.2 -9.86163
840 2 11.2 33.6 4.8 -9.72437
871 1 9.6 35.2 3.2 -11.741
842 2 14.4 33.6 4.8 -9.83562
873 1 12.8 35.2 3.2 -11.7362
844 2 17.6 33.6 4.8 -9.90887
875 2 16 35.2 3.2 -9.86183
846 2 20.8 33.6 4.8 -9.90905
877 4 19.2 35.2 3.2 -13.395
848 2 24 33.6 4.8 -9.91566
879 2 22.4 35.2 3.2 -9.88323
881 2 25.6 35.2 3.2 -9.80796
850 2 27.2 33.6 4.8 -9.90075
883 2 28.8 35.2 3.2 -9.75111
852 1 30.4 33.6 4.8 -11.8109
885 3 32 35.2 3.2 -11.2358
854 1 33.6 33.6 4.8 -11.8443
887 3 35.2 35.2 3.2 -11.3245
856 4 36.8 33.6 4.8 -13.3776
889 4 38.4 35.2 3.2 -13.3711
858 2 40 33.6 4.8 -9.84609
891 2 41.6 35.2 3.2 -9.92392
860 2 43.2 33.6 4.8 -9.92862
893 2 44.8 35.2 3.2 -9.84057
862 3 46.4 33.6 4.8 -11.3621
895 1 48 35.2 3.2 -11.8857
864 2 49.6 33.6 4.8 -9.80801
866 2 1.6 36.8 4.8 -9.83588
897 1 0 38.4 3.2 -11.8434
868 2 4.8 36.8 4.8 -9.88443
899 4 3.2 38.4 3.2 -13.2939
870 4 8 36.8 4.8 -13.3952
901 2 6.4 38.4 3.2 -9.88411
872 2 11.2 36.8 4.8 -9.86647
903 2 9.6 38.4 3.2 -9.93154
874 2 14.4 36.8 4.8 -9.89014
905 3 12.8 38.4 3.2 -11.3906
876 2 17.6 36.8 4.8 -9.9002
907 2 16 38.4 3.2 -9.85576
878 2 20.8 36.8 4.8 -9.92017
909 2 19.2 38.4 3.2 -9.8673
880 2 24 36.8 4.8 -9.92843
911 2 22.4 38.4 3.2 -9.94821
913 2 25.6 38.4 3.2 -9.95904
882 4 27.2 36.8 4.8 -13.3366
915 2 28.8 38.4 3.2 -9.83255
884 1 30.4 36.8 4.8 -11.7076
917 3 32 38.4 3.2 -11.2937
886 2 33.6 36.8 4.8 -9.82561
919 4 35.2 38.4 3.2 -13.4644
888 2 36.8 36.8 4.8 -9.88416
921 2 38.4 38.4 3.2 -9.87748
890 2 40 36.8 4.8 -9.902
923 4 41.6 38.4 3.2 -13.3652
892 3 43.2 36.8 4.8 -11.3926
925 4 44.8 38.4 3.2 -13.3886
894 3 46.4 36.8 4.8 -11.3873
927 4 48 38.4 3.2 -13.3541
896 2 49.6 36.8 4.8 -9.86806
898 2 1.6 40 4.8 -9.86022
929 2 0 41.6 3.2 -9.82663
900 2 4.8 40 4.8 -9.91139
931 1 3.2 41.6 3.2 -11.8576
902 2 8 40 4.8 -9.88211
933 1 6.4 41.6 3.2 -11.8649
904 4 11.2 40 4.8 -13.4497
935 2 9.6 41.6 3.2 -9.91225
906 1 14.4 40 4.8 -11.8251
937 3 12.8 41.6 3.2 -11.3846
908 1 17.6 40 4.8 -11.7651
939 3 16 41.6 3.2 -11.1624
910 2 20.8 40 4.8 -9.9072
941 3 19.2 41.6 3.2 -11.2228
912 2 24 40 4.8 -9.92272
943 2 22.4 41.6 3.2 -9.93177
945 3 25.6 41.6 3.2 -11.4565
914 2 27.2 40 4.8 -9.89135
947 2 28.8 41.6 3.2 -9.87363
916 1 30.4 40 4.8 -11.7928
949 3 32 41.6 3.2 -11.2927
918 4 33.6 40 4.8 -13.4079
951 2 35.2 41.6 3.2 -9.87658
920 2 36.8 40 4.8 -9.91882
953 2 38.4 41.6 3.2 -9.88454
922 4 40 40 4.8 -13.3668
955 2 41.6 41.6 3.2 -9.82882
924 2 43.2 40 4.8 -9.89554
957 4 44.8 41.6 3.2 -13.3794
926 3 46.4 40 4.8 -11.366
959 1 48 41.6 3.2 -11.8692
928 3 49.6 40 4.8 -11.2928
930 3 1.6 43.2 4.8 -11.4043
961 4 0 44.8 3.2 -13.3995
932 3 4.8 43.2 4.8 -11.4009
963 1 3.2 44.8 3.2 -11.9074
934 2 8 43.2 4.8 -9.91492
965 2 6.4 44.8 3.2 -9.86381
936 1 11.2 43.2 4.8 -11.8012
967 2 9.6 44.8 3.2 -9.94932
938 1 14.4 43.2 4.8 -11.7329
969 2 12.8 44.8 3.2 -9.88236
940 1 17.6 43.2 4.8 -11.766
971 2 16 44.8 3.2 -9.84044
942 2 20.8 43.2 4.8 -9.87591
973 2 19.2 44.8 3.2 -9.86266
944 2 24 43.2 4.8 -9.91872
975 2 22.4 44.8 3.2 -9.94632
977 2 25.6 44.8 3.2 -9.90636
946 4 27.2 43.2 4.8 -13.3559
979 2 28.8 44.8 3.2 -9.86018
948 1 30.4 43.2 4.8 -11.7321
981 2 32 44.8 3.2 -9.8595
950 1 33.6 43.2 4.8 -11.7469
983 2 35.2 44.8 3.2 -9.83519
952 1 36.8 43.2 4.8 -11.7736
985 2 38.4 44.8 3.2 -9.84406
954 2 40 43.2 4.8 -9.86011
987 1 41.6 44.8 3.2 -11.8111
956 2 43.2 43.2 4.8 -9.89183
989 1 44.8 44.8 3.2 -11.8264
958 3 46.4 43.2 4.8 -11.3049
991 1 48 44.8 3.2 -11.8412
960 3 49.6 43.2 4.8 -11.3561
962 3 1.6 46.4 4.8 -11.3982
993 1 0 48 3.2 -11.8977
964 3 4.8 46.4 4.8 -11.4655
995 1 3.2 48 3.2 -11.8687
966 4 8 46.4 4.8 -13.5002
997 4 6.4 48 3.2 -13.4548
968 2 11.2 46.4 4.8 -9.86463
999 4 9.6 48 3.2 -13.3619
970 2 14.4 46.4 4.8 -9.86453
1001 2 12.8 48 3.2 -9.85393
972 2 17.6 46.4 4.8 -9.83452
1003 2 16 48 3.2 -9.86579
974 2 20.8 46.4 4.8 -9.93843
1005 2 19.2 48 3.2 -9.92077
976 2 24 46.4 4.8 -9.90098
1007 2 22.4 48 3.2 -9.8743
1009 1 25.6 48 3.2 -11.7836
978 2 27.2 46.4 4.8 -9.86347
1011 4 28.8 48 3.2 -13.2871
980 2 30.4 46.4 4.8 -9.90025
1013 2 32 48 3.2 -9.92843
982 2 33.6 46.4 4.8 -9.86738
1015 2 35.2 48 3.2 -9.90656
984 2 36.8 46.4 4.8 -9.92253
1017 4 38.4 48 3.2 -13.4157
986 2 40 46.4 4.8 -9.93066
1019 1 41.6 48 3.2 -11.79
988 3 43.2 46.4 4.8 -11.2962
1021 4 44.8 48 3.2 -13.3564
990 3 46.4 46.4 4.8 -11.3076
1023 4 48 48 3.2 -13.3833
992 3 49.6 46.4 4.8 -11.3358
994 3 1.6 49.6 4.8 -11.2731
996 3 4.8 49.6 4.8 -11.3863
998 2 8 49.6 4.8 -9.85743
1000 2 11.2 49.6 4.8 -9.84433
1002 2 14.4 49.6 4.8 -9.88233
1004 2 17.6 49.6 4.8 -9.93123
1006 2 20.8 49.6 4.8 -9.86221
1008 3 24 49.6 4.8 -11.2352
1010 3 27.2 49.6 4.8 -11.2
1012 2 30.4 49.6 4.8 -9.88871
1014 2 33.6 49.6 4.8 -9.88699
1016 3 36.8 49.6 4.8 -11.3679
1018 2 40 49.6 4.8 -9.88169
1020 2 43.2 49.6 4.8 -9.88987
1022 3 46.4 49.6 4.8 -11.3047
1024 3 49.6 49.6 4.8 -11.3417
1025 1 0 0 6.4 -11.8715
1026 3 1.6 1.6 8 -11.2938
1027 1 3.2 0 6.4 -11.8011
1028 2 4.8 1.6 8 -9.84128
1029 2 6.4 0 6.4 -9.8506
1030 3 8 1.6 8 -11.3102
1031 1 9.6 0 6.4 -11.7803
1032 2 11.2 1.6 8 -9.94944
1033 2 12.8 0 6.4 -9.90514
1034 2 14.4 1.6 8 -9.90594
1035 2 16 0 6.4 -9.83757
1036 3 17.6 1.6 8 -11.2363
1037 1 19.2 0 6.4 -11.8304
1038 3 20.8 1.6 8 -11.2384
1039 1 22.4 0 6.4 -11.8115
1040 3 24 1.6 8 -11.2756
1041 1 25.6 0 6.4 -11.8414
1042 3 27.2 1.6 8 -11.2423
1043 1 28.8 0 6.4 -11.8309
1044 3 30.4 1.6 8 -11.3839
1045 2 32 0 6.4 -9.8499
1046 3 33.6 1.6 8 -11.4253
1047 1 35.2 0 6.4 -11.7945
1048 2 36.8 1.6 8 -9.94065
1049 2 38.4 0 6.4 -9.93942
1050 3 40 1.6 8 -11.3783
1051 2 41.6 0 6.4 -9.90612
1052 2 43.2 1.6 8 -9.95292
1053 4 44.8 0 6.4 -13.3831
1054 3 46.4 1.6 8 -11.2347
1055 1 48 0 6.4 -11.8551
1056 3 49.6 1.6 8 -11.3344
1057 1 0 3.2 6.4 -11.8538
1058 3 1.6 4.8 8 -11.2292
1059 1 3.2 3.2 6.4 -11.7795
1060 2 4.8 4.8 8 -9.78425
1061 1 6.4 3.2 6.4 -11.8388
1062 2 8 4.8 8 -9.87612
1063 2 9.6 3.2 6.4 -9.89706
1064 2 11.2 4.8 8 -9.94953
1065 2 12.8 3.2 6.4 -9.90621
1066 2 14.4 4.8 8 -9.87858
1067 1 16 3.2 6.4 -11.7944
1068 2 17.6 4.8 8 -9.85557
1069 1 19.2 3.2 6.4 -11.7901
1070 3 20.8 4.8 8 -11.2312
1071 1 22.4 3.2 6.4 -11.8133
1072 3 24 4.8 8 -11.3057
1073 1 25.6 3.2 6.4 -11.8416
1074 3 27.2 4.8 8 -11.3256
1075 1 28.8 3.2 6.4 -11.7865
1076 2 30.4 4.8 8 -9.93294
1077 1 32 3.2 6.4 -11.8274
1078 2 33.6 4.8 8 -9.88869
1079 2 35.2 3.2 6.4 -9.82915
1080 2 36.8 4.8 8 -9.79455
1081 2 38.4 3.2 6.4 -9.84075
1082 2 40 4.8 8 -9.89716
1083 4 41.6 3.2 6.4 -13.4536
1084 3 43.2 4.8 8 -11.2273
1085 4 44.8 3.2 6.4 -13.3822
1086 3 46.4 4.8 8 -11.2392
1087 1 48 3.2 6.4 -11.8414
1088 3 49.6 4.8 8 -11.268
1089 1 0 6.4 6.4 -11.8287
1090 2 1.6 8 8 -9.8413
1091 1 3.2 6.4 6.4 -11.7991
1092 2 4.8 8 8 -9.88896
1093 2 6.4 6.4 6.4 -9.8557
1094 1 8 8 8 -11.8093
1095 2 9.6 6.4 6.4 -9.88497
1096 2 11.2 8 8 -9.78371
1097 4 12.8 6.4 6.4 -13.3873
1098 2 14.4 8 8 -9.92568
1099 2 16 6.4 6.4 -9.88018
1100 2 17.6 8 8 -9.90809
1101 2 19.2 6.4 6.4 -9.85236
1102 4 20.8 8 8 -13.3923