ITEM: TIMESTEP
0
ITEM: NUMBER OF ATOMS
8192
ITEM: BOX BOUNDS pp pp pp
0.0000000000000000e+00 5.1200000000000003e+01
0.0000000000000000e+00 5.1200000000000003e+01
0.0000000000000000e+00 5.1200000000000003e+01
ITEM: ATOMS id type x y z c_eng
1 1 0 0 0 -11.8414
2 3 1.6 1.6 1.6 -11.2048
3 1 3.2 0 0 -11.78
4 3 4.8 1.6 1.6 -11.3221
5 1 6.4 0 0 -11.8419
6 3 8 1.6 1.6 -11.3658
7 1 9.6 0 0 -11.8097
8 2 11.2 1.6 1.6 -9.88878
9 2 12.8 0 0 -9.86486
10 2 14.4 1.6 1.6 -9.88449
11 1 16 0 0 -11.7574
12 2 17.6 1.6 1.6 -9.8846
13 4 19.2 0 0 -13.34
14 2 20.8 1.6 1.6 -9.88886
15 2 22.4 0 0 -9.86673
16 3 24 1.6 1.6 -11.2983
17 4 25.6 0 0 -13.3544
18 3 27.2 1.6 1.6 -11.3278
19 2 28.8 0 0 -9.87426
20 2 30.4 1.6 1.6 -9.88857
21 1 32 0 0 -11.8007
22 3 33.6 1.6 1.6 -11.2684
23 4 35.2 0 0 -13.3634
24 3 36.8 1.6 1.6 -11.3729
25 1 38.4 0 0 -11.8966
26 3 40 1.6 1.6 -11.2735
27 1 41.6 0 0 -11.8414
28 3 43.2 1.6 1.6 -11.2394
29 1 44.8 0 0 -11.8415
30 3 46.4 1.6 1.6 -11.3091
31 1 48 0 0 -11.8558
32 3 49.6 1.6 1.6 -11.2394
33 1 0 3.2 0 -11.829
34 2 1.6 4.8 1.6 -9.80803
35 1 3.2 3.2 0 -11.7774
36 2 4.8 4.8 1.6 -9.86038
37 2 6.4 3.2 0 -9.86857
38 1 8 4.8 1.6 -11.7731
39 2 9.6 3.2 0 -9.77718
40 1 11.2 4.8 1.6 -11.7045
41 2 12.8 3.2 0 -9.85727
42 1 14.4 4.8 1.6 -11.7304
43 2 16 3.2 0 -9.85922
44 4 17.6 4.8 1.6 -13.3943
45 2 19.2 3.2 0 -9.9369
46 2 20.8 4.8 1.6 -9.89053
47 2 22.4 3.2 0 -9.86163
48 3 24 4.8 1.6 -11.2389
49 1 25.6 3.2 0 -11.8206
50 3 27.2 4.8 1.6 -11.3049
51 4 28.8 3.2 0 -13.4204
52 3 30.4 4.8 1.6 -11.331
53 1 32 3.2 0 -11.8428
54 3 33.6 4.8 1.6 -11.3063
55 1 35.2 3.2 0 -11.8684
56 3 36.8 4.8 1.6 -11.3056
57 2 38.4 3.2 0 -9.75812
58 2 40 4.8 1.6 -9.86622
59 1 41.6 3.2 0 -11.8425
60 2 43.2 4.8 1.6 -9.81087
61 1 44.8 3.2 0 -11.8281
62 3 46.4 4.8 1.6 -11.2391
63 1 48 3.2 0 -11.8412
64 3 49.6 4.8 1.6 -11.2743
65 2 0 6.4 0 -9.85737
66 3 1.6 8 1.6 -11.3727
67 4 3.2 6.4 0 -13.3907
68 2 4.8 8 1.6 -9.89307
69 2 6.4 6.4 0 -9.85928
70 2 8 8 1.6 -9.81387
71 2 9.6 6.4 0 -9.77818
72 2 11.2 8 1.6 -9.81222
73 2 12.8 6.4 0 -9.82416
74 4 14.4 8 1.6 -13.3417
75 3 16 6.4 0 -11.3348
76 2 17.6 8 1.6 -9.90729
77 2 19.2 6.4 0 -9.92616
78 3 20.8 8 1.6 -11.285
79 1 22.4 6.4 0 -11.7949
80 3 24 8 1.6 -11.2413
81 1 25.6 6.4 0 -11.7906
82 3 27.2 8 1.6 -11.2384
83 4 28.8 6.4 0 -13.326
84 2 30.4 8 1.6 -9.86512
85 1 32 6.4 0 -11.8466
86 3 33.6 8 1.6 -11.3304
87 1 35.2 6.4 0 -11.8318
88 3 36.8 8 1.6 -11.2365
89 1 38.4 6.4 0 -11.8599
90 3 40 8 1.6 -11.3332
91 2 41.6 6.4 0 -9.77787
92 3 43.2 8 1.6 -11.3324
93 1 44.8 6.4 0 -11.8553
94 3 46.4 8 1.6 -11.2408
95 1 48 6.4 0 -11.8417
96 3 49.6 8 1.6 -11.2611
97 2 0 9.6 0 -9.90309
98 3 1.6 11.2 1.6 -11.4396
99 2 3.2 9.6 0 -9.86819
100 2 4.8 11.2 1.6 -9.88407
101 4 6.4 9.6 0 -13.3639
102 2 8 11.2 1.6 -9.85708
103 4 9.6 9.6 0 -13.3063
104 2 11.2 11.2 1.6 -9.89354
105 4 12.8 9.6 0 -13.3649
106 2 14.4 11.2 1.6 -9.83553
107 2 16 9.6 0 -9.89383
108 1 17.6 11.2 1.6 -11.8082
109 2 19.2 9.6 0 -9.89027
110 2 20.8 11.2 1.6 -9.86328
111 1 22.4 9.6 0 -11.8103
112 3 24 11.2 1.6 -11.2859
113 4 25.6 9.6 0 -13.3511
114 3 27.2 11.2 1.6 -11.2903
115 1 28.8 9.6 0 -11.7931
116 2 30.4 11.2 1.6 -9.88517
117 4 32 9.6 0 -13.367
118 3 33.6 11.2 1.6 -11.4166
119 4 35.2 9.6 0 -13.379
120 2 36.8 11.2 1.6 -9.83978
121 1 38.4 9.6 0 -11.7903
122 2 40 11.2 1.6 -9.88141
123 4 41.6 9.6 0 -13.4114
124 2 43.2 11.2 1.6 -9.88292
125 4 44.8 9.6 0 -13.3766
126 2 46.4 11.2 1.6 -9.84008
127 1 48 9.6 0 -11.8048
128 2 49.6 11.2 1.6 -9.86391
129 2 0 12.8 0 -9.9058
130 2 1.6 14.4 1.6 -9.81791
131 2 3.2 12.8 0 -9.88095
132 1 4.8 14.4 1.6 -11.7847
133 2 6.4 12.8 0 -9.88819
134 2 8 14.4 1.6 -9.88307
135 2 9.6 12.8 0 -9.91025
136 2 11.2 14.4 1.6 -9.87152
137 2 12.8 12.8 0 -9.88565
138 4 14.4 14.4 1.6 -13.3458
139 2 16 12.8 0 -9.88996
140 2 17.6 14.4 1.6 -9.81608
141 2 19.2 12.8 0 -9.86598
142 1 20.8 14.4 1.6 -11.7574
143 2 22.4 12.8 0 -9.87899
144 1 24 14.4 1.6 -11.7461
145 2 25.6 12.8 0 -9.90303
146 2 27.2 14.4 1.6 -9.85875
147 4 28.8 12.8 0 -13.3969
148 2 30.4 14.4 1.6 -9.92849
149 2 32 12.8 0 -9.86153
150 2 33.6 14.4 1.6 -9.87841
151 2 35.2 12.8 0 -9.92559
152 1 36.8 14.4 1.6 -11.8179
153 2 38.4 12.8 0 -9.86331
154 1 40 14.4 1.6 -11.8034
155 2 41.6 12.8 0 -9.86305
156 1 43.2 14.4 1.6 -11.7867
157 2 44.8 12.8 0 -9.87718
158 1 46.4 14.4 1.6 -11.7579
159 2 48 12.8 0 -9.85667
160 1 49.6 14.4 1.6 -11.795
161 3 0 16 0 -11.3043
162 1 1.6 17.6 1.6 -11.7903
163 2 3.2 16 0 -9.84829
164 1 4.8 17.6 1.6 -11.7533
165 2 6.4 16 0 -9.82587
166 2 8 17.6 1.6 -9.86183
167 2 9.6 16 0 -9.88747
168 4 11.2 17.6 1.6 -13.3924
169 2 12.8 16 0 -9.90899
170 4 14.4 17.6 1.6 -13.3126
171 2 16 16 0 -9.8895
172 1 17.6 17.6 1.6 -11.742
173 2 19.2 16 0 -9.84028
174 2 20.8 17.6 1.6 -9.83449
175 2 22.4 16 0 -9.88115
176 2 24 17.6 1.6 -9.85418
177 2 25.6 16 0 -9.86603
178 1 27.2 17.6 1.6 -11.7796
179 2 28.8 16 0 -9.85337
180 2 30.4 17.6 1.6 -9.90083
181 4 32 16 0 -13.3681
182 2 33.6 17.6 1.6 -9.84733
183 3 35.2 16 0 -11.3302
184 1 36.8 17.6 1.6 -11.8675
185 3 38.4 16 0 -11.3049
186 1 40 17.6 1.6 -11.8557
187 3 41.6 16 0 -11.24
188 1 43.2 17.6 1.6 -11.8555
189 3 44.8 16 0 -11.2739
190 4 46.4 17.6 1.6 -13.4082
191 3 48 16 0 -11.3002
192 2 49.6 17.6 1.6 -9.82585
193 2 0 19.2 0 -9.81731
194 1 1.6 20.8 1.6 -11.7336
195 2 3.2 19.2 0 -9.7835
196 4 4.8 20.8 1.6 -13.3122
197 2 6.4 19.2 0 -9.89063
198 2 8 20.8 1.6 -9.91599
199 2 9.6 19.2 0 -9.93346
200 4 11.2 20.8 1.6 -13.4196
201 2 12.8 19.2 0 -9.92507
202 2 14.4 20.8 1.6 -9.82746
203 2 16 19.2 0 -9.83584
204 1 17.6 20.8 1.6 -11.6837
205 4 19.2 19.2 0 -13.2433
206 2 20.8 20.8 1.6 -9.86437
207 4 22.4 19.2 0 -13.388
208 2 24 20.8 1.6 -9.9264
209 2 25.6 19.2 0 -9.87168
210 4 27.2 20.8 1.6 -13.3591
211 2 28.8 19.2 0 -9.84186
212 2 30.4 20.8 1.6 -9.88268
213 2 32 19.2 0 -9.91187
214 4 33.6 20.8 1.6 -13.496
215 3 35.2 19.2 0 -11.3335
216 1 36.8 20.8 1.6 -11.8832
217 3 38.4 19.2 0 -11.2756
218 4 40 20.8 1.6 -13.3383
219 3 41.6 19.2 0 -11.2756
220 1 43.2 20.8 1.6 -11.8437
221 3 44.8 19.2 0 -11.2756
222 1 46.4 20.8 1.6 -11.8132
223 3 48 19.2 0 -11.3015
224 4 49.6 20.8 1.6 -13.3233
225 3 0 22.4 0 -11.2299
226 2 1.6 24 1.6 -9.82909
227 2 3.2 22.4 0 -9.86514
228 2 4.8 24 1.6 -9.88174
229 2 6.4 22.4 0 -9.91439
230 2 8 24 1.6 -9.91269
231 2 9.6 22.4 0 -9.93689
232 2 11.2 24 1.6 -9.89999
233 2 12.8 22.4 0 -9.94339
234 4 14.4 24 1.6 -13.4202
235 2 16 22.4 0 -9.86397
236 4 17.6 24 1.6 -13.34
237 2 19.2 22.4 0 -9.83315
238 2 20.8 24 1.6 -9.88715
239 2 22.4 22.4 0 -9.89734
240 2 24 24 1.6 -9.9252
241 2 25.6 22.4 0 -9.94771
242 2 27.2 24 1.6 -9.86872
243 2 28.8 22.4 0 -9.90718
244 4 30.4 24 1.6 -13.3955
245 2 32 22.4 0 -9.95869
246 2 33.6 24 1.6 -9.83157
247 3 35.2 22.4 0 -11.3597
248 4 36.8 24 1.6 -13.3857
249 3 38.4 22.4 0 -11.2739
250 1 40 24 1.6 -11.8105
251 3 41.6 22.4 0 -11.2379
252 4 43.2 24 1.6 -13.35
253 3 44.8 22.4 0 -11.2761
254 1 46.4 24 1.6 -11.8263
255 3 48 22.4 0 -11.2737
256 4 49.6 24 1.6 -13.3468
257 2 0 25.6 0 -9.85939
259 2 3.2 25.6 0 -9.88088
261 4 6.4 25.6 0 -13.3452
263 4 9.6 25.6 0 -13.3125
265 2 12.8 25.6 0 -9.93691
267 2 16 25.6 0 -9.89853
269 4 19.2 25.6 0 -13.367
271 4 22.4 25.6 0 -13.39
273 2 25.6 25.6 0 -9.9299
275 4 28.8 25.6 0 -13.3957
277 3 32 25.6 0 -11.3576
279 3 35.2 25.6 0 -11.3021
281 2 38.4 25.6 0 -9.81609
283 2 41.6 25.6 0 -9.86425
285 3 44.8 25.6 0 -11.3623
287 3 48 25.6 0 -11.2982
258 2 1.6 27.2 1.6 -9.92839
289 2 0 28.8 0 -9.85534
260 2 4.8 27.2 1.6 -9.85945
291 2 3.2 28.8 0 -9.86428
262 3 8 27.2 1.6 -11.2289
293 1 6.4 28.8 0 -11.7406
264 2 11.2 27.2 1.6 -9.90896
295 1 9.6 28.8 0 -11.7459
266 2 14.4 27.2 1.6 -9.93968
297 2 12.8 28.8 0 -9.92084
268 2 17.6 27.2 1.6 -9.90741
299 3 16 28.8 0 -11.3839
270 2 20.8 27.2 1.6 -9.91995
301 2 19.2 28.8 0 -9.93144
272 2 24 27.2 1.6 -9.95418
303 3 22.4 28.8 0 -11.3978
305 2 25.6 28.8 0 -9.94228
274 2 27.2 27.2 1.6 -9.83598
307 2 28.8 28.8 0 -9.81416
276 1 30.4 27.2 1.6 -11.8074
309 3 32 28.8 0 -11.274
278 1 33.6 27.2 1.6 -11.8676
311 3 35.2 28.8 0 -11.2397
280 1 36.8 27.2 1.6 -11.8178
313 2 38.4 28.8 0 -9.90683
282 2 40 27.2 1.6 -9.8244
315 2 41.6 28.8 0 -9.94335
284 4 43.2 27.2 1.6 -13.449
317 2 44.8 28.8 0 -9.91655
286 4 46.4 27.2 1.6 -13.4269
319 2 48 28.8 0 -9.86442
288 2 49.6 27.2 1.6 -9.89716
290 2 1.6 30.4 1.6 -9.92131
321 3 0 32 0 -11.402
292 2 4.8 30.4 1.6 -9.84239
323 2 3.2 32 0 -9.86213
294 3 8 30.4 1.6 -11.2652
325 4 6.4 32 0 -13.3243
296 2 11.2 30.4 1.6 -9.88777
327 4 9.6 32 0 -13.3424
298 4 14.4 30.4 1.6 -13.3081
329 2 12.8 32 0 -9.90492
300 1 17.6 30.4 1.6 -11.7791
331 2 16 32 0 -9.86963
302 4 20.8 30.4 1.6 -13.3637
333 2 19.2 32 0 -9.84607
304 2 24 30.4 1.6 -9.93038
335 2 22.4 32 0 -9.92718
337 2 25.6 32 0 -9.90669
306 1 27.2 30.4 1.6 -11.7921
339 3 28.8 32 0 -11.2007
308 1 30.4 30.4 1.6 -11.8119
341 3 32 32 0 -11.3073
310 1 33.6 30.4 1.6 -11.8555
343 3 35.2 32 0 -11.3635
312 1 36.8 30.4 1.6 -11.8179
345 2 38.4 32 0 -9.93812
314 2 40 30.4 1.6 -9.93946
347 2 41.6 32 0 -9.89389
316 2 43.2 30.4 1.6 -9.93654
349 2 44.8 32 0 -9.9029
318 2 46.4 30.4 1.6 -9.90126
351 2 48 32 0 -9.88594
320 2 49.6 30.4 1.6 -9.93777
322 3 1.6 33.6 1.6 -11.3809
353 4 0 35.2 0 -13.4267
324 3 4.8 33.6 1.6 -11.3602
355 1 3.2 35.2 0 -11.8733
326 3 8 33.6 1.6 -11.3526
357 1 6.4 35.2 0 -11.7813
328 2 11.2 33.6 1.6 -9.90888
359 1 9.6 35.2 0 -11.7867
330 4 14.4 33.6 1.6 -13.3184
361 2 12.8 35.2 0 -9.88687
332 4 17.6 33.6 1.6 -13.2917
363 2 16 35.2 0 -9.84422
334 1 20.8 33.6 1.6 -11.8114
365 2 19.2 35.2 0 -9.86663
336 2 24 33.6 1.6 -9.87311
367 2 22.4 35.2 0 -9.92966
369 2 25.6 35.2 0 -9.95586
338 1 27.2 33.6 1.6 -11.8455
371 3 28.8 35.2 0 -11.3023
340 1 30.4 33.6 1.6 -11.8694
373 3 32 35.2 0 -11.2987
342 4 33.6 33.6 1.6 -13.3764
375 3 35.2 35.2 0 -11.409
344 1 36.8 33.6 1.6 -11.8546
377 3 38.4 35.2 0 -11.4087
346 2 40 33.6 1.6 -9.94661
379 1 41.6 35.2 0 -11.8714
348 3 43.2 33.6 1.6 -11.3477
381 4 44.8 35.2 0 -13.3567
350 3 46.4 33.6 1.6 -11.3547
383 1 48 35.2 0 -11.8436
352 3 49.6 33.6 1.6 -11.3793
354 3 1.6 36.8 1.6 -11.3417
385 1 0 38.4 0 -11.8695
356 3 4.8 36.8 1.6 -11.3625
387 1 3.2 38.4 0 -11.8551
358 2 8 36.8 1.6 -9.90601
389 1 6.4 38.4 0 -11.789
360 2 11.2 36.8 1.6 -9.8916
391 2 9.6 38.4 0 -9.86841
362 1 14.4 36.8 1.6 -11.7901
393 3 12.8 38.4 0 -11.3846
364 1 17.6 36.8 1.6 -11.7961
395 2 16 38.4 0 -9.90964
366 4 20.8 36.8 1.6 -13.3232
397 2 19.2 38.4 0 -9.90995
368 4 24 36.8 1.6 -13.4208
399 2 22.4 38.4 0 -9.94883
401 3 25.6 38.4 0 -11.3053
370 4 27.2 36.8 1.6 -13.3545
403 2 28.8 38.4 0 -9.87079
372 4 30.4 36.8 1.6 -13.3796
405 2 32 38.4 0 -9.84538
374 4 33.6 36.8 1.6 -13.39
407 2 35.2 38.4 0 -9.90828
376 3 36.8 36.8 1.6 -11.3924
409 2 38.4 38.4 0 -9.92702
378 3 40 36.8 1.6 -11.456
411 1 41.6 38.4 0 -11.8547
380 3 43.2 36.8 1.6 -11.2732
413 1 44.8 38.4 0 -11.8557
382 3 46.4 36.8 1.6 -11.2761
415 1 48 38.4 0 -11.8414
384 3 49.6 36.8 1.6 -11.3091
386 3 1.6 40 1.6 -11.3079
417 1 0 41.6 0 -11.8556
388 3 4.8 40 1.6 -11.306
419 4 3.2 41.6 0 -13.365
390 2 8 40 1.6 -9.86295
421 1 6.4 41.6 0 -11.8144
392 4 11.2 40 1.6 -13.4111
423 2 9.6 41.6 0 -9.8942
394 2 14.4 40 1.6 -9.91826
425 2 12.8 41.6 0 -9.90849
396 2 17.6 40 1.6 -9.90674
427 4 16 41.6 0 -13.4436
398 2 20.8 40 1.6 -9.92842
429 2 19.2 41.6 0 -9.92654
400 2 24 40 1.6 -9.93918
431 2 22.4 41.6 0 -9.9544
433 2 25.6 41.6 0 -9.88152
402 1 27.2 40 1.6 -11.7957
435 2 28.8 41.6 0 -9.85662
404 2 30.4 40 1.6 -9.85391
437 2 32 41.6 0 -9.90164
406 1 33.6 40 1.6 -11.7863
439 2 35.2 41.6 0 -9.86353
408 2 36.8 40 1.6 -9.93755
441 2 38.4 41.6 0 -9.85816
410 3 40 40 1.6 -11.4058
443 1 41.6 41.6 0 -11.8418
412 3 43.2 40 1.6 -11.2761
445 1 44.8 41.6 0 -11.8415
414 3 46.4 40 1.6 -11.2414
447 1 48 41.6 0 -11.8558
416 3 49.6 40 1.6 -11.2753
418 3 1.6 43.2 1.6 -11.2753
449 1 0 44.8 0 -11.8556
420 3 4.8 43.2 1.6 -11.3057
451 1 3.2 44.8 0 -11.8415
422 2 8 43.2 1.6 -9.86539
453 4 6.4 44.8 0 -13.3807
424 1 11.2 43.2 1.6 -11.7759
455 2 9.6 44.8 0 -9.84795
426 2 14.4 43.2 1.6 -9.87624
457 2 12.8 44.8 0 -9.89001
428 3 17.6 43.2 1.6 -11.3848
459 2 16 44.8 0 -9.89162
430 2 20.8 43.2 1.6 -9.98278
461 4 19.2 44.8 0 -13.4451
432 3 24 43.2 1.6 -11.319
463 2 22.4 44.8 0 -9.91496
465 2 25.6 44.8 0 -9.91059
434 4 27.2 43.2 1.6 -13.4133
467 2 28.8 44.8 0 -9.94572
436 2 30.4 43.2 1.6 -9.91901
469 2 32 44.8 0 -9.89171
438 1 33.6 43.2 1.6 -11.7789
471 2 35.2 44.8 0 -9.83932
440 4 36.8 43.2 1.6 -13.4071
473 1 38.4 44.8 0 -11.8375
442 3 40 43.2 1.6 -11.3633
475 1 41.6 44.8 0 -11.8411
444 3 43.2 43.2 1.6 -11.2753
477 1 44.8 44.8 0 -11.8698
446 3 46.4 43.2 1.6 -11.3086
479 4 48 44.8 0 -13.365
448 3 49.6 43.2 1.6 -11.2753
450 3 1.6 46.4 1.6 -11.2417
481 1 0 48 0 -11.8557
452 3 4.8 46.4 1.6 -11.3585
483 1 3.2 48 0 -11.8139
454 2 8 46.4 1.6 -9.94832
485 2 6.4 48 0 -9.8805
456 4 11.2 46.4 1.6 -13.3374
487 4 9.6 48 0 -13.4228
458 4 14.4 46.4 1.6 -13.3944
489 2 12.8 48 0 -9.92019
460 2 17.6 46.4 1.6 -9.9277
491 2 16 48 0 -9.91569
462 2 20.8 46.4 1.6 -9.92137
493 2 19.2 48 0 -9.91597
464 4 24 46.4 1.6 -13.4509
495 2 22.4 48 0 -9.92854
497 2 25.6 48 0 -9.86469
466 2 27.2 46.4 1.6 -9.90294
499 2 28.8 48 0 -9.90025
468 2 30.4 46.4 1.6 -9.91175
501 1 32 48 0 -11.7619
470 2 33.6 46.4 1.6 -9.8599
503 1 35.2 48 0 -11.8427
472 2 36.8 46.4 1.6 -9.86798
505 4 38.4 48 0 -13.3378
474 3 40 46.4 1.6 -11.3085
507 1 41.6 48 0 -11.8558
476 3 43.2 46.4 1.6 -11.2753
509 1 44.8 48 0 -11.8415
478 3 46.4 46.4 1.6 -11.3086
511 1 48 48 0 -11.8556
480 3 49.6 46.4 1.6 -11.2753
482 3 1.6 49.6 1.6 -11.2417
484 3 4.8 49.6 1.6 -11.3603
486 3 8 49.6 1.6 -11.407
488 2 11.2 49.6 1.6 -9.89005
490 2 14.4 49.6 1.6 -9.90581
492 2 17.6 49.6 1.6 -9.92601
494 2 20.8 49.6 1.6 -9.88318
496 2 24 49.6 1.6 -9.84017
498 2 27.2 49.6 1.6 -9.88697
500 2 30.4 49.6 1.6 -9.8082
502 3 33.6 49.6 1.6 -11.1999
504 3 36.8 49.6 1.6 -11.2733
506 3 40 49.6 1.6 -11.2756
508 3 43.2 49.6 1.6 -11.2414
510 3 46.4 49.6 1.6 -11.2753
512 3 49.6 49.6 1.6 -11.2756
513 1 0 0 3.2 -11.8282
514 3 1.6 1.6 4.8 -11.2019
515 1 3.2 0 3.2 -11.8276
516 2 4.8 1.6 4.8 -9.85856
517 4 6.4 0 3.2 -13.4113
518 2 8 1.6 4.8 -9.94077
519 4 9.6 0 3.2 -13.3939
520 2 11.2 1.6 4.8 -9.92845
521 4 12.8 0 3.2 -13.4219
522 2 14.4 1.6 4.8 -9.86571
523 2 16 0 3.2 -9.85378
524 2 17.6 1.6 4.8 -9.91067
525 4 19.2 0 3.2 -13.3352
526 2 20.8 1.6 4.8 -9.77997
527 1 22.4 0 3.2 -11.7487
528 3 24 1.6 4.8 -11.1651
529 1 25.6 0 3.2 -11.7711
530 3 27.2 1.6 4.8 -11.2722
531 4 28.8 0 3.2 -13.3491
532 3 30.4 1.6 4.8 -11.2579
533 1 32 0 3.2 -11.758
534 2 33.6 1.6 4.8 -9.89382
535 1 35.2 0 3.2 -11.8715
536 3 36.8 1.6 4.8 -11.3368
537 1 38.4 0 3.2 -11.8408
538 3 40 1.6 4.8 -11.2417
539 1 41.6 0 3.2 -11.8416
540 3 43.2 1.6 4.8 -11.307
541 1 44.8 0 3.2 -11.8697
542 3 46.4 1.6 4.8 -11.3034
543 4 48 0 3.2 -13.3399
544 2 49.6 1.6 4.8 -9.80339
545 1 0 3.2 3.2 -11.7979
546 3 1.6 4.8 4.8 -11.1939
547 1 3.2 3.2 3.2 -11.7896
548 2 4.8 4.8 4.8 -9.87686
549 3 6.4 3.2 3.2 -11.3845
550 2 8 4.8 4.8 -9.92032
551 2 9.6 3.2 3.2 -9.92096
552 2 11.2 4.8 4.8 -9.84276
553 2 12.8 3.2 3.2 -9.81058
554 1 14.4 4.8 4.8 -11.7492
555 2 16 3.2 3.2 -9.88133
556 2 17.6 4.8 4.8 -9.86191
557 2 19.2 3.2 3.2 -9.86147
558 3 20.8 4.8 4.8 -11.2243
559 1 22.4 3.2 3.2 -11.8186
560 3 24 4.8 4.8 -11.2767
561 1 25.6 3.2 3.2 -11.8553
562 3 27.2 4.8 4.8 -11.2756
563 4 28.8 3.2 3.2 -13.4045
564 3 30.4 4.8 4.8 -11.3611
565 4 32 3.2 3.2 -13.3996
566 2 33.6 4.8 4.8 -9.9162
567 4 35.2 3.2 3.2 -13.3562
568 3 36.8 4.8 4.8 -11.3317
569 1 38.4 3.2 3.2 -11.8707
570 3 40 4.8 4.8 -11.2714
571 1 41.6 3.2 3.2 -11.7958
572 3 43.2 4.8 4.8 -11.2712
573 4 44.8 3.2 3.2 -13.3586
574 3 46.4 4.8 4.8 -11.3076
575 1 48 3.2 3.2 -11.8416
576 3 49.6 4.8 4.8 -11.2358
577 1 0 6.4 3.2 -11.8145
578 2 1.6 8 4.8 -9.9115
579 4 3.2 6.4 3.2 -13.2959
580 2 4.8 8 4.8 -9.8699
581 2 6.4 6.4 3.2 -9.89879
582 2 8 8 4.8 -9.85641
583 2 9.6 6.4 3.2 -9.84211
584 4 11.2 8 4.8 -13.3986
585 2 12.8 6.4 3.2 -9.81674
586 2 14.4 8 4.8 -9.83606
587 2 16 6.4 3.2 -9.86316
588 2 17.6 8 4.8 -9.92312
589 4 19.2 6.4 3.2 -13.3758
590 2 20.8 8 4.8 -9.89367
591 1 22.4 6.4 3.2 -11.8161
592 3 24 8 4.8 -11.2973
593 1 25.6 6.4 3.2 -11.8411
594 3 27.2 8 4.8 -11.3054
595 1 28.8 6.4 3.2 -11.8566
596 3 30.4 8 4.8 -11.3268
597 4 32 6.4 3.2 -13.3958
598 3 33.6 8 4.8 -11.348
599 1 35.2 6.4 3.2 -11.8466
600 2 36.8 8 4.8 -9.86426
601 4 38.4 6.4 3.2 -13.3328
602 3 40 8 4.8 -11.3057
603 1 41.6 6.4 3.2 -11.8419
604 3 43.2 8 4.8 -11.2751
605 1 44.8 6.4 3.2 -11.8277
606 3 46.4 8 4.8 -11.2698
607 1 48 6.4 3.2 -11.8117
608 2 49.6 8 4.8 -9.83404
609 1 0 9.6 3.2 -11.8408
610 3 1.6 11.2 4.8 -11.4301
611 4 3.2 9.6 3.2 -13.3818
612 2 4.8 11.2 4.8 -9.94894
613 1 6.4 9.6 3.2 -11.7414
614 2 8 11.2 4.8 -9.84714
615 1 9.6 9.6 3.2 -11.7323
616 2 11.2 11.2 4.8 -9.79621
617 2 12.8 9.6 3.2 -9.827
618 2 14.4 11.2 4.8 -9.90195
619 2 16 9.6 3.2 -9.92632
620 2 17.6 11.2 4.8 -9.88906
621 2 19.2 9.6 3.2 -9.89171
622 2 20.8 11.2 4.8 -9.92071
623 1 22.4 9.6 3.2 -11.8249
624 2 24 11.2 4.8 -9.88812
625 1 25.6 9.6 3.2 -11.8441
626 2 27.2 11.2 4.8 -9.88881
627 1 28.8 9.6 3.2 -11.7898
628 2 30.4 11.2 4.8 -9.91102
629 2 32 9.6 3.2 -9.85878
630 2 33.6 11.2 4.8 -9.92909
631 1 35.2 9.6 3.2 -11.8312
632 2 36.8 11.2 4.8 -9.84126
633 1 38.4 9.6 3.2 -11.7841
634 3 40 11.2 4.8 -11.3422
635 4 41.6 9.6 3.2 -13.3815
636 2 43.2 11.2 4.8 -9.90767
637 1 44.8 9.6 3.2 -11.8066
638 2 46.4 11.2 4.8 -9.86319
639 1 48 9.6 3.2 -11.7617
640 2 49.6 11.2 4.8 -9.93911
641 2 0 12.8 3.2 -9.90901
642 4 1.6 14.4 4.8 -13.4167
643 2 3.2 12.8 3.2 -9.95032
644 2 4.8 14.4 4.8 -9.8935
645 2 6.4 12.8 3.2 -9.87684
646 2 8 14.4 4.8 -9.93404
647 2 9.6 12.8 3.2 -9.84132
648 4 11.2 14.4 4.8 -13.2967
649 1 12.8 12.8 3.2 -11.7196
650 2 14.4 14.4 4.8 -9.79181
651 2 16 12.8 3.2 -9.88164
652 2 17.6 14.4 4.8 -9.90652
653 2 19.2 12.8 3.2 -9.89073
654 4 20.8 14.4 4.8 -13.4069
655 2 22.4 12.8 3.2 -9.80876
656 4 24 14.4 4.8 -13.307
657 4 25.6 12.8 3.2 -13.3523
658 2 27.2 14.4 4.8 -9.9201
659 4 28.8 12.8 3.2 -13.3695
660 2 30.4 14.4 4.8 -9.89335
661 2 32 12.8 3.2 -9.93127
662 1 33.6 14.4 4.8 -11.7694
663 2 35.2 12.8 3.2 -9.85539
664 1 36.8 14.4 4.8 -11.7329
665 2 38.4 12.8 3.2 -9.83303
666 1 40 14.4 4.8 -11.7759
667 3 41.6 12.8 3.2 -11.3107
668 1 43.2 14.4 4.8 -11.7611
669 2 44.8 12.8 3.2 -9.81275
670 1 46.4 14.4 4.8 -11.7702
671 2 48 12.8 3.2 -9.81368
672 2 49.6 14.4 4.8 -9.82891
673 2 0 16 3.2 -9.89419
674 2 1.6 17.6 4.8 -9.8726
675 3 3.2 16 3.2 -11.2771
676 2 4.8 17.6 4.8 -9.90943
677 2 6.4 16 3.2 -9.9262
678 2 8 17.6 4.8 -9.93945
679 2 9.6 16 3.2 -9.96369
680 2 11.2 17.6 4.8 -9.8493
681 2 12.8 16 3.2 -9.82125
682 1 14.4 17.6 4.8 -11.7942
683 2 16 16 3.2 -9.88954
684 4 17.6 17.6 4.8 -13.373
685 2 19.2 16 3.2 -9.89463
686 2 20.8 17.6 4.8 -9.92314
687 2 22.4 16 3.2 -9.85968
688 2 24 17.6 4.8 -9.96761
689 2 25.6 16 3.2 -9.88077
690 3 27.2 17.6 4.8 -11.3133
691 2 28.8 16 3.2 -9.91394
692 2 30.4 17.6 4.8 -9.92597
693 2 32 16 3.2 -9.90667
694 1 33.6 17.6 4.8 -11.7801
695 3 35.2 16 3.2 -11.2609
696 1 36.8 17.6 4.8 -11.7867
697 3 38.4 16 3.2 -11.1651
698 1 40 17.6 4.8 -11.8134
699 3 41.6 16 3.2 -11.2051
700 1 43.2 17.6 4.8 -11.8184
701 3 44.8 16 3.2 -11.2305
702 2 46.4 17.6 4.8 -9.84159
703 2 48 16 3.2 -9.88605
704 2 49.6 17.6 4.8 -9.89697
705 2 0 19.2 3.2 -9.86365
706 2 1.6 20.8 4.8 -9.85869
707 2 3.2 19.2 3.2 -9.85555
708 2 4.8 20.8 4.8 -9.92024
709 2 6.4 19.2 3.2 -9.90101
710 2 8 20.8 4.8 -9.92656
711 2 9.6 19.2 3.2 -9.94167
712 2 11.2 20.8 4.8 -9.89352
713 2 12.8 19.2 3.2 -9.87239
714 1 14.4 20.8 4.8 -11.7838
715 3 16 19.2 3.2 -11.1913
716 1 17.6 20.8 4.8 -11.776
717 2 19.2 19.2 3.2 -9.83442
718 2 20.8 20.8 4.8 -9.89128
719 4 22.4 19.2 3.2 -13.3885
720 2 24 20.8 4.8 -9.94171
721 2 25.6 19.2 3.2 -9.89566
722 2 27.2 20.8 4.8 -9.85679
723 4 28.8 19.2 3.2 -13.3474
724 2 30.4 20.8 4.8 -9.88314
725 2 32 19.2 3.2 -9.93066
726 4 33.6 20.8 4.8 -13.3433
727 3 35.2 19.2 3.2 -11.3008
728 1 36.8 20.8 4.8 -11.8592
729 3 38.4 19.2 3.2 -11.2764
730 1 40 20.8 4.8 -11.8333
731 3 41.6 19.2 3.2 -11.24
732 1 43.2 20.8 4.8 -11.7905
733 3 44.8 19.2 3.2 -11.27
734 1 46.4 20.8 4.8 -11.7107
735 2 48 19.2 3.2 -9.88604
736 4 49.6 20.8 4.8 -13.3095
737 2 0 22.4 3.2 -9.82299
738 1 1.6 24 4.8 -11.7574
739 2 3.2 22.4 3.2 -9.86863
740 2 4.8 24 4.8 -9.88652
741 4 6.4 22.4 3.2 -13.3716
742 3 8 24 4.8 -11.3674
743 2 9.6 22.4 3.2 -9.9058
744 2 11.2 24 4.8 -9.95052
745 2 12.8 22.4 3.2 -9.91065
746 2 14.4 24 4.8 -9.8703
747 2 16 22.4 3.2 -9.84598
748 2 17.6 24 4.8 -9.8936
749 2 19.2 22.4 3.2 -9.86014
750 2 20.8 24 4.8 -9.88634
751 4 22.4 22.4 3.2 -13.3911
752 2 24 24 4.8 -9.863
753 2 25.6 22.4 3.2 -9.90592
754 1 27.2 24 4.8 -11.7373
755 2 28.8 22.4 3.2 -9.86857
756 1 30.4 24 4.8 -11.8022
757 3 32 22.4 3.2 -11.4083
758 1 33.6 24 4.8 -11.8748
759 3 35.2 22.4 3.2 -11.4505
760 2 36.8 24 4.8 -9.84199
761 3 38.4 22.4 3.2 -11.3276
762 2 40 24 4.8 -9.83075
763 2 41.6 22.4 3.2 -9.86826
764 2 43.2 24 4.8 -9.88391
765 3 44.8 22.4 3.2 -11.2316
766 1 46.4 24 4.8 -11.7568
767 2 48 22.4 3.2 -9.72238
768 1 49.6 24 4.8 -11.7071
769 2 0 25.6 3.2 -9.88073
771 2 3.2 25.6 3.2 -9.89928
773 1 6.4 25.6 3.2 -11.8069
775 4 9.6 25.6 3.2 -13.423
777 2 12.8 25.6 3.2 -9.91569
779 2 16 25.6 3.2 -9.94168
781 2 19.2 25.6 3.2 -9.8937
783 4 22.4 25.6 3.2 -13.3321
785 2 25.6 25.6 3.2 -9.88091
787 2 28.8 25.6 3.2 -9.78625
789 3 32 25.6 3.2 -11.2636
791 3 35.2 25.6 3.2 -11.3924
793 2 38.4 25.6 3.2 -9.89726
795 2 41.6 25.6 3.2 -9.89304
797 3 44.8 25.6 3.2 -11.3759
799 2 48 25.6 3.2 -9.86014
770 2 1.6 27.2 4.8 -9.91566
801 2 0 28.8 3.2 -9.9495
772 2 4.8 27.2 4.8 -9.89048
803 2 3.2 28.8 3.2 -9.87444
774 3 8 27.2 4.8 -11.322
805 1 6.4 28.8 3.2 -11.7999
776 2 11.2 27.2 4.8 -9.93405
807 4 9.6 28.8 3.2 -13.3756
778 2 14.4 27.2 4.8 -9.91573
809 2 12.8 28.8 3.2 -9.90259
780 2 17.6 27.2 4.8 -9.89211
811 2 16 28.8 3.2 -9.85404
782 2 20.8 27.2 4.8 -9.90372
813 2 19.2 28.8 3.2 -9.90716
784 2 24 27.2 4.8 -9.89415
815 2 22.4 28.8 3.2 -9.95816
817 2 25.6 28.8 3.2 -9.93111
786 1 27.2 27.2 4.8 -11.7921
819 3 28.8 28.8 3.2 -11.2016
788 1 30.4 27.2 4.8 -11.784
821 3 32 28.8 3.2 -11.2426
790 1 33.6 27.2 4.8 -11.7992
823 3 35.2 28.8 3.2 -11.2737
792 4 36.8 27.2 4.8 -13.3722
825 3 38.4 28.8 3.2 -11.3161
794 1 40 27.2 4.8 -11.8185
827 2 41.6 28.8 3.2 -9.94803
796 2 43.2 27.2 4.8 -9.88883
829 2 44.8 28.8 3.2 -9.90114
798 2 46.4 27.2 4.8 -9.89173
831 2 48 28.8 3.2 -9.93688
800 2 49.6 27.2 4.8 -9.88307
802 2 1.6 30.4 4.8 -9.90956
833 4 0 32 3.2 -13.3881
804 3 4.8 30.4 4.8 -11.235
835 1 3.2 32 3.2 -11.818
806 3 8 30.4 4.8 -11.3327
837 1 6.4 32 3.2 -11.865
808 2 11.2 30.4 4.8 -9.90553
839 4 9.6 32 3.2 -13.4484
810 1 14.4 30.4 4.8 -11.6848
841 2 12.8 32 3.2 -9.83581
812 1 17.6 30.4 4.8 -11.7726
843 2 16 32 3.2 -9.75425
814 2 20.8 30.4 4.8 -9.88523
845 3 19.2 32 3.2 -11.261
816 2 24 30.4 4.8 -9.89372
847 2 22.4 32 3.2 -9.93237
849 3 25.6 32 3.2 -11.3537
818 1 27.2 30.4 4.8 -11.8547
851 3 28.8 32 3.2 -11.2423
820 1 30.4 30.4 4.8 -11.8416
853 3 32 32 3.2 -11.2759
822 1 33.6 30.4 4.8 -11.7979
855 3 35.2 32 3.2 -11.2341
824 4 36.8 30.4 4.8 -13.3556
857 2 38.4 32 3.2 -9.88618
826 2 40 30.4 4.8 -9.87006
859 2 41.6 32 3.2 -9.87152
828 2 43.2 30.4 4.8 -9.89142
861 4 44.8 32 3.2 -13.4225
830 2 46.4 30.4 4.8 -9.91166
863 4 48 32 3.2 -13.3936
832 2 49.6 30.4 4.8 -9.9214
834 2 1.6 33.6 4.8 -9.89074
865 1 0 35.2 3.2 -11.8716
836 3 4.8 33.6 4.8 -11.3819
867 4 3.2 35.2 3.2 -13.4146
838 3 8 33.6 4.8 -11.4093
869 2 6.4 35.2 3.2 -9.90837
840 2 11.2 33.6 4.8 -9.90648
871 2 9.6 35.2 3.2 -9.88685
842 1 14.4 33.6 4.8 -11.7637
873 2 12.8 35.2 3.2 -9.85962
844 4 17.6 33.6 4.8 -13.3491
875 3 16 35.2 3.2 -11.234
846 1 20.8 33.6 4.8 -11.8175
877 3 19.2 35.2 3.2 -11.2328
848 4 24 33.6 4.8 -13.3912
879 3 22.4 35.2 3.2 -11.2595
881 3 25.6 35.2 3.2 -11.3304
850 1 27.2 33.6 4.8 -11.8689
883 3 28.8 35.2 3.2 -11.3081
852 1 30.4 33.6 4.8 -11.8407
885 3 32 35.2 3.2 -11.3351
854 1 33.6 33.6 4.8 -11.848
887 2 35.2 35.2 3.2 -9.91394
856 4 36.8 33.6 4.8 -13.3179
889 2 38.4 35.2 3.2 -9.93818
858 2 40 33.6 4.8 -9.83864
891 1 41.6 35.2 3.2 -11.7735
860 2 43.2 33.6 4.8 -9.75453
893 1 44.8 35.2 3.2 -11.7796
862 2 46.4 33.6 4.8 -9.83964
895 1 48 35.2 3.2 -11.8148
864 2 49.6 33.6 4.8 -9.88869
866 3 1.6 36.8 4.8 -11.3879
897 4 0 38.4 3.2 -13.3828
868 3 4.8 36.8 4.8 -11.4595
899 1 3.2 38.4 3.2 -11.8959
870 2 8 36.8 4.8 -9.94669
901 2 6.4 38.4 3.2 -9.85538
872 2 11.2 36.8 4.8 -9.88101
903 2 9.6 38.4 3.2 -9.93692
874 1 14.4 36.8 4.8 -11.7788
905 2 12.8 38.4 3.2 -9.93462
876 1 17.6 36.8 4.8 -11.7703
907 3 16 38.4 3.2 -11.2554
878 1 20.8 36.8 4.8 -11.7497
909 2 19.2 38.4 3.2 -9.83827
880 1 24 36.8 4.8 -11.792
911 2 22.4 38.4 3.2 -9.88476
913 2 25.6 38.4 3.2 -9.89412
882 1 27.2 36.8 4.8 -11.8329
915 3 28.8 38.4 3.2 -11.2891
884 1 30.4 36.8 4.8 -11.8469
917 2 32 38.4 3.2 -9.89814
886 2 33.6 36.8 4.8 -9.81569
919 2 35.2 38.4 3.2 -9.9339
888 4 36.8 36.8 4.8 -13.4457
921 2 38.4 38.4 3.2 -9.94819
890 2 40 36.8 4.8 -9.90284
923 4 41.6 38.4 3.2 -13.3818
892 2 43.2 36.8 4.8 -9.77638
925 1 44.8 38.4 3.2 -11.828
894 3 46.4 36.8 4.8 -11.1618
927 1 48 38.4 3.2 -11.8556
896 3 49.6 36.8 4.8 -11.3316
898 3 1.6 40 4.8 -11.2717
929 1 0 41.6 3.2 -11.8556
900 3 4.8 40 4.8 -11.2688
931 1 3.2 41.6 3.2 -11.8554
902 2 8 40 4.8 -9.83736
933 1 6.4 41.6 3.2 -11.8056
904 2 11.2 40 4.8 -9.90258
935 2 9.6 41.6 3.2 -9.8348
906 2 14.4 40 4.8 -9.87292
937 2 12.8 41.6 3.2 -9.92294
908 1 17.6 40 4.8 -11.802
939 2 16 41.6 3.2 -9.9348
910 2 20.8 40 4.8 -9.84425
941 2 19.2 41.6 3.2 -9.93259
912 2 24 40 4.8 -9.87382
943 2 22.4 41.6 3.2 -9.93239
945 2 25.6 41.6 3.2 -9.91325
914 2 27.2 40 4.8 -9.87436
947 2 28.8 41.6 3.2 -9.953
916 4 30.4 40 4.8 -13.4239
949 2 32 41.6 3.2 -9.86852
918 2 33.6 40 4.8 -9.81575
951 3 35.2 41.6 3.2 -11.3233
920 4 36.8 40 4.8 -13.4401
953 2 38.4 41.6 3.2 -9.94255
922 2 40 40 4.8 -9.88634
955 1 41.6 41.6 3.2 -11.8564
924 3 43.2 40 4.8 -11.2345
957 1 44.8 41.6 3.2 -11.8557
926 3 46.4 40 4.8 -11.2429
959 1 48 41.6 3.2 -11.8414
928 3 49.6 40 4.8 -11.2717
930 3 1.6 43.2 4.8 -11.2423
961 1 0 44.8 3.2 -11.8416
932 3 4.8 43.2 4.8 -11.2698
963 1 3.2 44.8 3.2 -11.8551
934 2 8 43.2 4.8 -9.86368
965 4 6.4 44.8 3.2 -13.4249
936 2 11.2 43.2 4.8 -9.89926
967 2 9.6 44.8 3.2 -9.90268
938 2 14.4 43.2 4.8 -9.92019
969 2 12.8 44.8 3.2 -9.88328
940 2 17.6 43.2 4.8 -9.8645
971 4 16 44.8 3.2 -13.3949
942 2 20.8 43.2 4.8 -9.86356
973 4 19.2 44.8 3.2 -13.36
944 1 24 43.2 4.8 -11.7692
975 2 22.4 44.8 3.2 -9.92317
977 2 25.6 44.8 3.2 -9.90805
946 2 27.2 43.2 4.8 -9.90176
979 3 28.8 44.8 3.2 -11.4467
948 2 30.4 43.2 4.8 -9.89134
981 2 32 44.8 3.2 -9.92608
950 1 33.6 43.2 4.8 -11.8213
983 3 35.2 44.8 3.2 -11.3349
952 4 36.8 43.2 4.8 -13.4243
985 2 38.4 44.8 3.2 -9.87882
954 3 40 43.2 4.8 -11.3508
987 1 41.6 44.8 3.2 -11.8826
956 3 43.2 43.2 4.8 -11.2387
989 4 44.8 44.8 3.2 -13.365
958 3 46.4 43.2 4.8 -11.2381
991 1 48 44.8 3.2 -11.8698
960 3 49.6 43.2 4.8 -11.2039
962 3 1.6 46.4 4.8 -11.2753
993 1 0 48 3.2 -11.8415
964 3 4.8 46.4 4.8 -11.3975
995 1 3.2 48 3.2 -11.8815
966 2 8 46.4 4.8 -9.93454
997 2 6.4 48 3.2 -9.88224
968 2 11.2 46.4 4.8 -9.85367
999 2 9.6 48 3.2 -9.88434
970 2 14.4 46.4 4.8 -9.86413
1001 2 12.8 48 3.2 -9.90031
972 2 17.6 46.4 4.8 -9.8901
1003 2 16 48 3.2 -9.90304
974 2 20.8 46.4 4.8 -9.9229
1005 2 19.2 48 3.2 -9.93962
976 2 24 46.4 4.8 -9.87525
1007 2 22.4 48 3.2 -9.89213
1009 4 25.6 48 3.2 -13.3684
978 2 27.2 46.4 4.8 -9.95396
1011 2 28.8 48 3.2 -9.9077
980 2 30.4 46.4 4.8 -9.97314
1013 1 32 48 3.2 -11.7898
982 3 33.6 46.4 4.8 -11.3819
1015 1 35.2 48 3.2 -11.828
984 2 36.8 46.4 4.8 -9.94809
1017 1 38.4 48 3.2 -11.844
986 3 40 46.4 4.8 -11.364
1019 1 41.6 48 3.2 -11.8412
988 3 43.2 46.4 4.8 -11.2756
1021 1 44.8 48 3.2 -11.8557
990 3 46.4 46.4 4.8 -11.2756
1023 1 48 48 3.2 -11.8556
992 3 49.6 46.4 4.8 -11.2417
994 3 1.6 49.6 4.8 -11.2758
996 3 4.8 49.6 4.8 -11.3
998 2 8 49.6 4.8 -9.86613
1000 2 11.2 49.6 4.8 -9.89294
1002 2 14.4 49.6 4.8 -9.86467
1004 3 17.6 49.6 4.8 -11.3053
1006 2 20.8 49.6 4.8 -9.87844
1008 2 24 49.6 4.8 -9.8083
1010 2 27.2 49.6 4.8 -9.86251
1012 2 30.4 49.6 4.8 -9.84143
1014 3 33.6 49.6 4.8 -11.3233
1016 3 36.8 49.6 4.8 -11.3304
1018 3 40 49.6 4.8 -11.2759
1020 3 43.2 49.6 4.8 -11.2414
1022 3 46.4 49.6 4.8 -11.2756
1024 3 49.6 49.6 4.8 -11.2391
1025 1 0 0 6.4 -11.8279
1026 3 1.6 1.6 8 -11.2704
1027 1 3.2 0 6.4 -11.839
1028 3 4.8 1.6 8 -11.3208
1029 1 6.4 0 6.4 -11.8085
1030 2 8 1.6 8 -9.90182
1031 2 9.6 0 6.4 -9.85864
1032 2 11.2 1.6 8 -9.95698
1033 2 12.8 0 6.4 -9.84304
1034 2 14.4 1.6 8 -9.8437
1035 1 16 0 6.4 -11.7292
1036 3 17.6 1.6 8 -11.1953
1037 1 19.2 0 6.4 -11.7901
1038 3 20.8 1.6 8 -11.2694
1039 1 22.4 0 6.4 -11.7696
1040 3 24 1.6 8 -11.3625
1041 1 25.6 0 6.4 -11.8141
1042 3 27.2 1.6 8 -11.3336
1043 1 28.8 0 6.4 -11.7713
1044 2 30.4 1.6 8 -9.81079
1045 1 32 0 6.4 -11.782
1046 2 33.6 1.6 8 -9.91966
1047 2 35.2 0 6.4 -9.85878
1048 3 36.8 1.6 8 -11.3265
1049 1 38.4 0 6.4 -11.8722
1050 3 40 1.6 8 -11.2734
1051 1 41.6 0 6.4 -11.8555
1052 3 43.2 1.6 8 -11.2729
1053 1 44.8 0 6.4 -11.8555
1054 3 46.4 1.6 8 -11.2384
1055 1 48 0 6.4 -11.8281
1056 3 49.6 1.6 8 -11.272
1057 4 0 3.2 6.4 -13.3577
1058 2 1.6 4.8 8 -9.83008
1059 1 3.2 3.2 6.4 -11.7708
1060 2 4.8 4.8 8 -9.83112
1061 2 6.4 3.2 6.4 -9.90845
1062 4 8 4.8 8 -13.3941
1063 2 9.6 3.2 6.4 -9.93686
1064 2 11.2 4.8 8 -9.90581
1065 4 12.8 3.2 6.4 -13.3969
1066 2 14.4 4.8 8 -9.81094
1067 2 16 3.2 6.4 -9.81714
1068 2 17.6 4.8 8 -9.87049
1069 4 19.2 3.2 6.4 -13.3257
1070 2 20.8 4.8 8 -9.86836
1071 1 22.4 3.2 6.4 -11.8317
1072 3 24 4.8 8 -11.3592
1073 1 25.6 3.2 6.4 -11.8551
1074 3 27.2 4.8 8 -11.3319
1075 1 28.8 3.2 6.4 -11.8438
1076 2 30.4 4.8 8 -9.87324
1077 2 32 3.2 6.4 -9.84016
1078 2 33.6 4.8 8 -9.8713
1079 4 35.2 3.2 6.4 -13.4023
1080 3 36.8 4.8 8 -11.3301
1081 1 38.4 3.2 6.4 -11.8691
1082 3 40 4.8 8 -11.2717
1083 1 41.6 3.2 6.4 -11.8555
1084 3 43.2 4.8 8 -11.2384
1085 4 44.8 3.2 6.4 -13.385
1086 3 46.4 4.8 8 -11.2732
1087 1 48 3.2 6.4 -11.8418
1088 3 49.6 4.8 8 -11.2977
1089 4 0 6.4 6.4 -13.3771
1090 3 1.6 8 8 -11.2441
1091 1 3.2 6.4 6.4 -11.7658
1092 2 4.8 8 8 -9.90178
1093 2 6.4 6.4 6.4 -9.90015
1094 4 8 8 8 -13.4209
1095 2 9.6 6.4 6.4 -9.95015
1096 2 11.2 8 8 -9.86197
1097 2 12.8 6.4 6.4 -9.86789
1098 1 14.4 8 8 -11.7752
1099 2 16 6.4 6.4 -9.8659
1100 2 17.6 8 8 -9.85315
1101 1 19.2 6.4 6.4 -11.7888
1102 2 20.8 8 8 -9.92296
1103 4 22.4 6.4 6.4 -13.3556