ITEM: TIMESTEP
0
ITEM: NUMBER OF ATOMS
8192
ITEM: BOX BOUNDS pp pp pp
0.0000000000000000e+00 5.1200000000000003e+01
0.0000000000000000e+00 5.1200000000000003e+01
0.0000000000000000e+00 5.1200000000000003e+01
ITEM: ATOMS id type x y z c_eng
1 4 0 0 0 -13.3389
2 3 1.6 1.6 1.6 -11.2392
3 1 3.2 0 0 -11.7972
4 3 4.8 1.6 1.6 -11.2589
5 1 6.4 0 0 -11.7614
6 2 8 1.6 1.6 -9.91288
7 4 9.6 0 0 -13.3925
8 3 11.2 1.6 1.6 -11.3793
9 4 12.8 0 0 -13.3898
10 2 14.4 1.6 1.6 -9.85818
11 4 16 0 0 -13.303
12 4 17.6 1.6 1.6 -13.2187
13 1 19.2 0 0 -11.6932
14 2 20.8 1.6 1.6 -9.84071
15 2 22.4 0 0 -9.82892
16 2 24 1.6 1.6 -9.932
17 3 25.6 0 0 -11.3995
18 2 27.2 1.6 1.6 -9.94037
19 2 28.8 0 0 -9.96037
20 2 30.4 1.6 1.6 -9.92036
21 2 32 0 0 -9.91621
22 1 33.6 1.6 1.6 -11.7749
23 2 35.2 0 0 -9.8659
24 2 36.8 1.6 1.6 -9.80283
25 1 38.4 0 0 -11.7474
26 2 40 1.6 1.6 -9.92639
27 2 41.6 0 0 -9.88338
28 2 43.2 1.6 1.6 -9.92856
29 4 44.8 0 0 -13.4051
30 3 46.4 1.6 1.6 -11.4139
31 1 48 0 0 -11.8442
32 3 49.6 1.6 1.6 -11.2711
33 1 0 3.2 0 -11.8259
34 3 1.6 4.8 1.6 -11.1658
35 1 3.2 3.2 0 -11.8186
36 2 4.8 4.8 1.6 -9.83752
37 2 6.4 3.2 0 -9.8699
38 1 8 4.8 1.6 -11.8007
39 2 9.6 3.2 0 -9.90268
40 1 11.2 4.8 1.6 -11.8306
41 2 12.8 3.2 0 -9.9044
42 1 14.4 4.8 1.6 -11.7863
43 2 16 3.2 0 -9.81381
44 1 17.6 4.8 1.6 -11.7654
45 2 19.2 3.2 0 -9.85567
46 2 20.8 4.8 1.6 -9.92427
47 4 22.4 3.2 0 -13.3634
48 2 24 4.8 1.6 -9.91647
49 4 25.6 3.2 0 -13.4206
50 2 27.2 4.8 1.6 -9.78587
51 2 28.8 3.2 0 -9.88292
52 2 30.4 4.8 1.6 -9.89429
53 2 32 3.2 0 -9.92626
54 2 33.6 4.8 1.6 -9.89282
55 2 35.2 3.2 0 -9.89397
56 4 36.8 4.8 1.6 -13.4497
57 2 38.4 3.2 0 -9.84021
58 2 40 4.8 1.6 -9.8572
59 4 41.6 3.2 0 -13.3083
60 2 43.2 4.8 1.6 -9.86736
61 2 44.8 3.2 0 -9.86632
62 3 46.4 4.8 1.6 -11.2982
63 1 48 3.2 0 -11.837
64 2 49.6 4.8 1.6 -9.735
65 1 0 6.4 0 -11.8119
66 3 1.6 8 1.6 -11.2742
67 1 3.2 6.4 0 -11.8042
68 2 4.8 8 1.6 -9.88839
69 2 6.4 6.4 0 -9.86668
70 4 8 8 1.6 -13.2953
71 3 9.6 6.4 0 -11.2619
72 1 11.2 8 1.6 -11.8452
73 3 12.8 6.4 0 -11.2742
74 1 14.4 8 1.6 -11.8829
75 3 16 6.4 0 -11.3267
76 4 17.6 8 1.6 -13.3737
77 2 19.2 6.4 0 -9.94606
78 2 20.8 8 1.6 -9.91066
79 2 22.4 6.4 0 -9.89871
80 3 24 8 1.6 -11.3163
81 2 25.6 6.4 0 -9.87303
82 2 27.2 8 1.6 -9.86873
83 4 28.8 6.4 0 -13.3905
84 2 30.4 8 1.6 -9.8694
85 3 32 6.4 0 -11.3979
86 2 33.6 8 1.6 -9.9161
87 2 35.2 6.4 0 -9.95011
88 2 36.8 8 1.6 -9.93126
89 2 38.4 6.4 0 -9.89384
90 3 40 8 1.6 -11.3791
91 1 41.6 6.4 0 -11.7021
92 2 43.2 8 1.6 -9.84317
93 4 44.8 6.4 0 -13.3392
94 3 46.4 8 1.6 -11.2374
95 1 48 6.4 0 -11.8257
96 3 49.6 8 1.6 -11.1645
97 1 0 9.6 0 -11.8074
98 2 1.6 11.2 1.6 -9.92252
99 2 3.2 9.6 0 -9.88364
100 2 4.8 11.2 1.6 -9.88078
101 2 6.4 9.6 0 -9.85967
102 1 8 11.2 1.6 -11.7586
103 3 9.6 9.6 0 -11.2004
104 4 11.2 11.2 1.6 -13.3961
105 3 12.8 9.6 0 -11.269
106 4 14.4 11.2 1.6 -13.3988
107 3 16 9.6 0 -11.4198
108 4 17.6 11.2 1.6 -13.3986
109 2 19.2 9.6 0 -9.89934
110 3 20.8 11.2 1.6 -11.3014
111 1 22.4 9.6 0 -11.7992
112 2 24 11.2 1.6 -9.86718
113 4 25.6 9.6 0 -13.3698
114 4 27.2 11.2 1.6 -13.3485
115 2 28.8 9.6 0 -9.86414
116 1 30.4 11.2 1.6 -11.8204
117 2 32 9.6 0 -9.91026
118 1 33.6 11.2 1.6 -11.8046
119 2 35.2 9.6 0 -9.88998
120 1 36.8 11.2 1.6 -11.8076
121 2 38.4 9.6 0 -9.90394
122 1 40 11.2 1.6 -11.7693
123 2 41.6 9.6 0 -9.83332
124 2 43.2 11.2 1.6 -9.85015
125 4 44.8 9.6 0 -13.384
126 2 46.4 11.2 1.6 -9.82426
127 1 48 9.6 0 -11.7611
128 4 49.6 11.2 1.6 -13.2982
129 3 0 12.8 0 -11.3889
130 2 1.6 14.4 1.6 -9.97709
131 3 3.2 12.8 0 -11.4482
132 2 4.8 14.4 1.6 -9.92374
133 2 6.4 12.8 0 -9.91544
134 3 8 14.4 1.6 -11.3191
135 3 9.6 12.8 0 -11.3605
136 2 11.2 14.4 1.6 -9.95704
137 2 12.8 12.8 0 -9.91027
138 4 14.4 14.4 1.6 -13.3927
139 3 16 12.8 0 -11.259
140 1 17.6 14.4 1.6 -11.7634
141 2 19.2 12.8 0 -9.90387
142 2 20.8 14.4 1.6 -9.88741
143 4 22.4 12.8 0 -13.3371
144 2 24 14.4 1.6 -9.8629
145 2 25.6 12.8 0 -9.8878
146 1 27.2 14.4 1.6 -11.8202
147 3 28.8 12.8 0 -11.3037
148 1 30.4 14.4 1.6 -11.8669
149 3 32 12.8 0 -11.2737
150 1 33.6 14.4 1.6 -11.8549
151 3 35.2 12.8 0 -11.2712
152 1 36.8 14.4 1.6 -11.8409
153 3 38.4 12.8 0 -11.2315
154 4 40 14.4 1.6 -13.3317
155 2 41.6 12.8 0 -9.83906
156 4 43.2 14.4 1.6 -13.3539
157 3 44.8 12.8 0 -11.3176
158 1 46.4 14.4 1.6 -11.8237
159 3 48 12.8 0 -11.3172
160 2 49.6 14.4 1.6 -9.88384
161 2 0 16 0 -9.88214
162 2 1.6 17.6 1.6 -9.89694
163 2 3.2 16 0 -9.971
164 3 4.8 17.6 1.6 -11.3737
165 4 6.4 16 0 -13.4017
166 3 8 17.6 1.6 -11.239
167 1 9.6 16 0 -11.8683
168 3 11.2 17.6 1.6 -11.3795
169 2 12.8 16 0 -9.8721
170 2 14.4 17.6 1.6 -9.88287
171 2 16 16 0 -9.82225
172 4 17.6 17.6 1.6 -13.3442
173 2 19.2 16 0 -9.85866
174 2 20.8 17.6 1.6 -9.81642
175 2 22.4 16 0 -9.81646
176 2 24 17.6 1.6 -9.81826
177 2 25.6 16 0 -9.88516
178 1 27.2 17.6 1.6 -11.757
179 3 28.8 16 0 -11.301
180 1 30.4 17.6 1.6 -11.8248
181 3 32 16 0 -11.2394
182 1 33.6 17.6 1.6 -11.8916
183 3 35.2 16 0 -11.2758
184 4 36.8 17.6 1.6 -13.3634
185 3 38.4 16 0 -11.3094
186 1 40 17.6 1.6 -11.8411
187 3 41.6 16 0 -11.2701
188 1 43.2 17.6 1.6 -11.8476
189 3 44.8 16 0 -11.2717
190 2 46.4 17.6 1.6 -9.79294
191 2 48 16 0 -9.83716
192 2 49.6 17.6 1.6 -9.87088
193 2 0 19.2 0 -9.81191
194 2 1.6 20.8 1.6 -9.87658
195 2 3.2 19.2 0 -9.92736
196 2 4.8 20.8 1.6 -9.85895
197 1 6.4 19.2 0 -11.8545
198 3 8 20.8 1.6 -11.2045
199 1 9.6 19.2 0 -11.8134
200 3 11.2 20.8 1.6 -11.3504
201 2 12.8 19.2 0 -9.90918
202 4 14.4 20.8 1.6 -13.3881
203 2 16 19.2 0 -9.86591
204 2 17.6 20.8 1.6 -9.85612
205 1 19.2 19.2 0 -11.7458
206 2 20.8 20.8 1.6 -9.77791
207 1 22.4 19.2 0 -11.7134
208 2 24 20.8 1.6 -9.87171
209 4 25.6 19.2 0 -13.3489
210 2 27.2 20.8 1.6 -9.87684
211 2 28.8 19.2 0 -9.81623
212 1 30.4 20.8 1.6 -11.7792
213 3 32 19.2 0 -11.2405
214 1 33.6 20.8 1.6 -11.841
215 3 35.2 19.2 0 -11.2753
216 1 36.8 20.8 1.6 -11.8555
217 3 38.4 19.2 0 -11.2753
218 1 40 20.8 1.6 -11.8414
219 3 41.6 19.2 0 -11.2394
220 1 43.2 20.8 1.6 -11.8122
221 2 44.8 19.2 0 -9.8076
222 1 46.4 20.8 1.6 -11.7945
223 2 48 19.2 0 -9.78376
224 4 49.6 20.8 1.6 -13.3309
225 3 0 22.4 0 -11.262
226 2 1.6 24 1.6 -9.84519
227 2 3.2 22.4 0 -9.89647
228 2 4.8 24 1.6 -9.83201
229 1 6.4 22.4 0 -11.8137
230 3 8 24 1.6 -11.2019
231 1 9.6 22.4 0 -11.8167
232 2 11.2 24 1.6 -9.86853
233 2 12.8 22.4 0 -9.88605
234 1 14.4 24 1.6 -11.7644
235 2 16 22.4 0 -9.85094
236 2 17.6 24 1.6 -9.89097
237 1 19.2 22.4 0 -11.8053
238 3 20.8 24 1.6 -11.2983
239 1 22.4 22.4 0 -11.8109
240 3 24 24 1.6 -11.3768
241 2 25.6 22.4 0 -9.92463
242 2 27.2 24 1.6 -9.93568
243 2 28.8 22.4 0 -9.89501
244 2 30.4 24 1.6 -9.86466
245 3 32 22.4 0 -11.3559
246 1 33.6 24 1.6 -11.8465
247 3 35.2 22.4 0 -11.3049
248 1 36.8 24 1.6 -11.8039
249 3 38.4 22.4 0 -11.2397
250 1 40 24 1.6 -11.8117
251 3 41.6 22.4 0 -11.2426
252 1 43.2 24 1.6 -11.831
253 3 44.8 22.4 0 -11.2007
254 4 46.4 24 1.6 -13.321
255 3 48 22.4 0 -11.2389
256 1 49.6 24 1.6 -11.8403
257 2 0 25.6 0 -9.89051
259 2 3.2 25.6 0 -9.91105
261 1 6.4 25.6 0 -11.8409
263 1 9.6 25.6 0 -11.8146
265 4 12.8 25.6 0 -13.292
267 2 16 25.6 0 -9.89551
269 4 19.2 25.6 0 -13.3607
271 2 22.4 25.6 0 -9.83622
273 2 25.6 25.6 0 -9.87211
275 2 28.8 25.6 0 -9.86666
277 3 32 25.6 0 -11.3521
279 2 35.2 25.6 0 -9.91938
281 2 38.4 25.6 0 -9.83837
283 3 41.6 25.6 0 -11.2029
285 3 44.8 25.6 0 -11.3007
287 3 48 25.6 0 -11.378
258 4 1.6 27.2 1.6 -13.3998
289 2 0 28.8 0 -9.88363
260 3 4.8 27.2 1.6 -11.294
291 2 3.2 28.8 0 -9.8389
262 3 8 27.2 1.6 -11.3054
293 1 6.4 28.8 0 -11.8674
264 2 11.2 27.2 1.6 -9.7923
295 1 9.6 28.8 0 -11.825
266 2 14.4 27.2 1.6 -9.80721
297 1 12.8 28.8 0 -11.7495
268 2 17.6 27.2 1.6 -9.85534
299 2 16 28.8 0 -9.78061
270 2 20.8 27.2 1.6 -9.77815
301 1 19.2 28.8 0 -11.7771
272 2 24 27.2 1.6 -9.83658
303 1 22.4 28.8 0 -11.8228
305 2 25.6 28.8 0 -9.8739
274 2 27.2 27.2 1.6 -9.82831
307 3 28.8 28.8 0 -11.262
276 1 30.4 27.2 1.6 -11.8246
309 3 32 28.8 0 -11.2753
278 2 33.6 27.2 1.6 -9.85137
311 3 35.2 28.8 0 -11.4323
280 2 36.8 27.2 1.6 -9.85935
313 2 38.4 28.8 0 -9.9271
282 1 40 27.2 1.6 -11.8041
315 3 41.6 28.8 0 -11.2622
284 1 43.2 27.2 1.6 -11.8029
317 2 44.8 28.8 0 -9.88734
286 2 46.4 27.2 1.6 -9.90935
319 4 48 28.8 0 -13.4286
288 3 49.6 27.2 1.6 -11.3731
290 2 1.6 30.4 1.6 -9.81374
321 1 0 32 0 -11.7906
292 3 4.8 30.4 1.6 -11.2361
323 1 3.2 32 0 -11.8117
294 3 8 30.4 1.6 -11.3649
325 1 6.4 32 0 -11.8117
296 3 11.2 30.4 1.6 -11.3778
327 1 9.6 32 0 -11.8932
298 2 14.4 30.4 1.6 -9.93791
329 2 12.8 32 0 -9.80168
300 3 17.6 30.4 1.6 -11.2555
331 1 16 32 0 -11.8141
302 3 20.8 30.4 1.6 -11.2011
333 1 19.2 32 0 -11.7571
304 3 24 30.4 1.6 -11.2928
335 2 22.4 32 0 -9.85659
337 2 25.6 32 0 -9.94131
306 2 27.2 30.4 1.6 -9.87578
339 2 28.8 32 0 -9.86121
308 1 30.4 30.4 1.6 -11.7621
341 3 32 32 0 -11.1645
310 1 33.6 30.4 1.6 -11.8094
343 3 35.2 32 0 -11.4178
312 2 36.8 30.4 1.6 -9.85733
345 2 38.4 32 0 -9.92679
314 1 40 30.4 1.6 -11.7899
347 2 41.6 32 0 -9.84133
316 1 43.2 30.4 1.6 -11.8255
349 2 44.8 32 0 -9.8671
318 3 46.4 30.4 1.6 -11.2803
351 1 48 32 0 -11.7544
320 3 49.6 30.4 1.6 -11.2553
322 3 1.6 33.6 1.6 -11.2582
353 2 0 35.2 0 -9.88495
324 2 4.8 33.6 1.6 -9.70683
355 1 3.2 35.2 0 -11.8371
326 3 8 33.6 1.6 -11.3005
357 1 6.4 35.2 0 -11.8121
328 3 11.2 33.6 1.6 -11.4621
359 1 9.6 35.2 0 -11.8269
330 3 14.4 33.6 1.6 -11.4436
361 1 12.8 35.2 0 -11.8716
332 2 17.6 33.6 1.6 -9.84063
363 2 16 35.2 0 -9.84861
334 2 20.8 33.6 1.6 -9.84258
365 2 19.2 35.2 0 -9.81979
336 2 24 33.6 1.6 -9.88195
367 2 22.4 35.2 0 -9.8873
369 3 25.6 35.2 0 -11.3309
338 2 27.2 33.6 1.6 -9.86576
371 3 28.8 35.2 0 -11.4063
340 1 30.4 33.6 1.6 -11.7909
373 3 32 35.2 0 -11.3642
342 1 33.6 33.6 1.6 -11.7929
375 3 35.2 35.2 0 -11.3856
344 4 36.8 33.6 1.6 -13.3663
377 2 38.4 35.2 0 -9.90773
346 1 40 33.6 1.6 -11.7973
379 2 41.6 35.2 0 -9.88115
348 4 43.2 33.6 1.6 -13.3409
381 2 44.8 35.2 0 -9.88417
350 2 46.4 33.6 1.6 -9.90975
383 4 48 35.2 0 -13.3414
352 2 49.6 33.6 1.6 -9.85438
354 3 1.6 36.8 1.6 -11.3607
385 4 0 38.4 0 -13.3803
356 3 4.8 36.8 1.6 -11.1628
387 1 3.2 38.4 0 -11.8412
358 3 8 36.8 1.6 -11.3347
389 1 6.4 38.4 0 -11.8418
360 2 11.2 36.8 1.6 -9.90109
391 1 9.6 38.4 0 -11.8179
362 4 14.4 36.8 1.6 -13.4156
393 2 12.8 38.4 0 -9.90015
364 1 17.6 36.8 1.6 -11.7926
395 3 16 38.4 0 -11.3536
366 2 20.8 36.8 1.6 -9.83614
397 2 19.2 38.4 0 -9.81418
368 2 24 36.8 1.6 -9.85375
399 2 22.4 38.4 0 -9.75415
401 2 25.6 38.4 0 -9.86993
370 2 27.2 36.8 1.6 -9.91394
403 2 28.8 38.4 0 -9.93781
372 2 30.4 36.8 1.6 -9.8665
405 3 32 38.4 0 -11.4007
374 1 33.6 36.8 1.6 -11.8387
407 2 35.2 38.4 0 -9.89609
376 1 36.8 36.8 1.6 -11.794
409 2 38.4 38.4 0 -9.83807
378 2 40 36.8 1.6 -9.82906
411 2 41.6 38.4 0 -9.8981
380 2 43.2 36.8 1.6 -9.88586
413 4 44.8 38.4 0 -13.3539
382 2 46.4 36.8 1.6 -9.86391
415 1 48 38.4 0 -11.8018
384 3 49.6 36.8 1.6 -11.3462
386 3 1.6 40 1.6 -11.301
417 1 0 41.6 0 -11.8695
388 2 4.8 40 1.6 -9.8646
419 4 3.2 41.6 0 -13.3578
390 3 8 40 1.6 -11.2895
421 1 6.4 41.6 0 -11.8037
392 2 11.2 40 1.6 -9.88838
423 1 9.6 41.6 0 -11.7899
394 4 14.4 40 1.6 -13.4203
425 2 12.8 41.6 0 -9.88623
396 4 17.6 40 1.6 -13.4158
427 3 16 41.6 0 -11.3913
398 1 20.8 40 1.6 -11.8015
429 3 19.2 41.6 0 -11.3339
400 1 24 40 1.6 -11.789
431 3 22.4 41.6 0 -11.2042
433 3 25.6 41.6 0 -11.2742
402 1 27.2 40 1.6 -11.7763
435 2 28.8 41.6 0 -9.87001
404 1 30.4 40 1.6 -11.8188
437 2 32 41.6 0 -9.90845
406 1 33.6 40 1.6 -11.8182
439 2 35.2 41.6 0 -9.88447
408 1 36.8 40 1.6 -11.7632
441 2 38.4 41.6 0 -9.85997
410 4 40 40 1.6 -13.3947
443 3 41.6 41.6 0 -11.3778
412 3 43.2 40 1.6 -11.2787
445 1 44.8 41.6 0 -11.8712
414 3 46.4 40 1.6 -11.2408
447 1 48 41.6 0 -11.8554
416 3 49.6 40 1.6 -11.2767
418 3 1.6 43.2 1.6 -11.3323
449 1 0 44.8 0 -11.8413
420 2 4.8 43.2 1.6 -9.88509
451 1 3.2 44.8 0 -11.8572
422 2 8 43.2 1.6 -9.83432
453 1 6.4 44.8 0 -11.8025
424 2 11.2 43.2 1.6 -9.82567
455 1 9.6 44.8 0 -11.7392
426 1 14.4 43.2 1.6 -11.8156
457 2 12.8 44.8 0 -9.84209
428 2 17.6 43.2 1.6 -9.87095
459 3 16 44.8 0 -11.4052
430 1 20.8 43.2 1.6 -11.87
461 3 19.2 44.8 0 -11.4168
432 1 24 43.2 1.6 -11.8568
463 3 22.4 44.8 0 -11.3346
465 3 25.6 44.8 0 -11.3588
434 4 27.2 43.2 1.6 -13.3519
467 2 28.8 44.8 0 -9.89089
436 2 30.4 43.2 1.6 -9.8847
469 2 32 44.8 0 -9.92918
438 4 33.6 43.2 1.6 -13.4008
471 2 35.2 44.8 0 -9.87015
440 2 36.8 43.2 1.6 -9.88892
473 1 38.4 44.8 0 -11.7579
442 2 40 43.2 1.6 -9.85315
475 2 41.6 44.8 0 -9.87142
444 4 43.2 43.2 1.6 -13.3315
477 2 44.8 44.8 0 -9.8001
446 3 46.4 43.2 1.6 -11.2383
479 1 48 44.8 0 -11.8678
448 3 49.6 43.2 1.6 -11.2036
450 3 1.6 46.4 1.6 -11.3095
481 1 0 48 0 -11.8439
452 3 4.8 46.4 1.6 -11.2876
483 1 3.2 48 0 -11.8117
454 2 8 46.4 1.6 -9.86147
485 1 6.4 48 0 -11.8189
456 1 11.2 46.4 1.6 -11.7127
487 2 9.6 48 0 -9.77827
458 4 14.4 46.4 1.6 -13.304
489 2 12.8 48 0 -9.90266
460 2 17.6 46.4 1.6 -9.93746
491 2 16 48 0 -9.93655
462 2 20.8 46.4 1.6 -9.89759
493 2 19.2 48 0 -9.89805
464 2 24 46.4 1.6 -9.87483
495 2 22.4 48 0 -9.86258
497 2 25.6 48 0 -9.86625
466 2 27.2 46.4 1.6 -9.89221
499 1 28.8 48 0 -11.7711
468 2 30.4 46.4 1.6 -9.91211
501 2 32 48 0 -9.89382
470 2 33.6 46.4 1.6 -9.89088
503 2 35.2 48 0 -9.89351
472 2 36.8 46.4 1.6 -9.88765
505 1 38.4 48 0 -11.7409
474 2 40 46.4 1.6 -9.87027
507 2 41.6 48 0 -9.88494
476 2 43.2 46.4 1.6 -9.86721
509 4 44.8 48 0 -13.3808
478 3 46.4 46.4 1.6 -11.3328
511 1 48 48 0 -11.813
480 3 49.6 46.4 1.6 -11.2732
482 3 1.6 49.6 1.6 -11.1987
484 2 4.8 49.6 1.6 -9.78033
486 2 8 49.6 1.6 -9.87111
488 2 11.2 49.6 1.6 -9.86671
490 2 14.4 49.6 1.6 -9.88518
492 2 17.6 49.6 1.6 -9.80895
494 2 20.8 49.6 1.6 -9.81116
496 2 24 49.6 1.6 -9.88163
498 2 27.2 49.6 1.6 -9.94271
500 3 30.4 49.6 1.6 -11.4283
502 2 33.6 49.6 1.6 -9.87049
504 2 36.8 49.6 1.6 -9.90885
506 2 40 49.6 1.6 -9.90138
508 2 43.2 49.6 1.6 -9.96793
510 2 46.4 49.6 1.6 -9.91198
512 2 49.6 49.6 1.6 -9.86503
513 1 0 0 3.2 -11.8117
514 2 1.6 1.6 4.8 -9.74076
515 1 3.2 0 3.2 -11.7358
516 3 4.8 1.6 4.8 -11.3283
517 4 6.4 0 3.2 -13.408
518 3 8 1.6 4.8 -11.4135
519 4 9.6 0 3.2 -13.3877
520 3 11.2 1.6 4.8 -11.3796
521 4 12.8 0 3.2 -13.4114
522 2 14.4 1.6 4.8 -9.8655
523 4 16 0 3.2 -13.288
524 3 17.6 1.6 4.8 -11.2333
525 1 19.2 0 3.2 -11.7351
526 3 20.8 1.6 4.8 -11.3344
527 1 22.4 0 3.2 -11.835
528 3 24 1.6 4.8 -11.3681
529 2 25.6 0 3.2 -9.87159
530 3 27.2 1.6 4.8 -11.319
531 2 28.8 0 3.2 -9.94825
532 2 30.4 1.6 4.8 -9.90582
533 2 32 0 3.2 -9.8693
534 1 33.6 1.6 4.8 -11.7001
535 2 35.2 0 3.2 -9.80752
536 1 36.8 1.6 4.8 -11.7365
537 2 38.4 0 3.2 -9.89309
538 2 40 1.6 4.8 -9.83807
539 2 41.6 0 3.2 -9.93938
540 2 43.2 1.6 4.8 -9.88315
541 2 44.8 0 3.2 -9.90135
542 3 46.4 1.6 4.8 -11.3608
543 2 48 0 3.2 -9.82479
544 3 49.6 1.6 4.8 -11.3043
545 1 0 3.2 3.2 -11.7982
546 3 1.6 4.8 4.8 -11.2397
547 1 3.2 3.2 3.2 -11.8113
548 3 4.8 4.8 4.8 -11.3348
549 2 6.4 3.2 3.2 -9.88742
550 3 8 4.8 4.8 -11.2834
551 2 9.6 3.2 3.2 -9.91393
552 2 11.2 4.8 4.8 -9.87652
553 3 12.8 3.2 3.2 -11.3431
554 2 14.4 4.8 4.8 -9.80005
555 4 16 3.2 3.2 -13.3335
556 2 17.6 4.8 4.8 -9.88424
557 2 19.2 3.2 3.2 -9.84494
558 3 20.8 4.8 4.8 -11.4085
559 2 22.4 3.2 3.2 -9.8554
560 3 24 4.8 4.8 -11.3312
561 4 25.6 3.2 3.2 -13.3376
562 2 27.2 4.8 4.8 -9.78505
563 1 28.8 3.2 3.2 -11.7501
564 2 30.4 4.8 4.8 -9.84052
565 2 32 3.2 3.2 -9.85911
566 2 33.6 4.8 4.8 -9.90641
567 2 35.2 3.2 3.2 -9.84096
568 2 36.8 4.8 4.8 -9.84026
569 2 38.4 3.2 3.2 -9.90363
570 2 40 4.8 4.8 -9.88684
571 2 41.6 3.2 3.2 -9.87607
572 3 43.2 4.8 4.8 -11.2283
573 4 44.8 3.2 3.2 -13.4311
574 3 46.4 4.8 4.8 -11.3089
575 1 48 3.2 3.2 -11.8506
576 3 49.6 4.8 4.8 -11.2716
577 1 0 6.4 3.2 -11.8259
578 3 1.6 8 4.8 -11.2767
579 1 3.2 6.4 3.2 -11.8134
580 3 4.8 8 4.8 -11.2638
581 2 6.4 6.4 3.2 -9.87664
582 2 8 8 4.8 -9.8593
583 2 9.6 6.4 3.2 -9.86188
584 2 11.2 8 4.8 -9.7979
585 3 12.8 6.4 3.2 -11.3005
586 1 14.4 8 4.8 -11.7928
587 3 16 6.4 3.2 -11.2651
588 1 17.6 8 4.8 -11.8105
589 2 19.2 6.4 3.2 -9.90295
590 2 20.8 8 4.8 -9.81298
591 4 22.4 6.4 3.2 -13.4012
592 3 24 8 4.8 -11.2709
593 1 25.6 6.4 3.2 -11.8016
594 2 27.2 8 4.8 -9.84548
595 1 28.8 6.4 3.2 -11.6967
596 4 30.4 8 4.8 -13.399
597 2 32 6.4 3.2 -9.91021
598 2 33.6 8 4.8 -9.88605
599 2 35.2 6.4 3.2 -9.91567
600 2 36.8 8 4.8 -9.87882
601 2 38.4 6.4 3.2 -9.9135
602 3 40 8 4.8 -11.3159
603 4 41.6 6.4 3.2 -13.3627
604 2 43.2 8 4.8 -9.77898
605 1 44.8 6.4 3.2 -11.8011
606 3 46.4 8 4.8 -11.1996
607 1 48 6.4 3.2 -11.8258
608 3 49.6 8 4.8 -11.2359
609 4 0 9.6 3.2 -13.2785
610 3 1.6 11.2 4.8 -11.2989
611 1 3.2 9.6 3.2 -11.8495
612 3 4.8 11.2 4.8 -11.2363
613 2 6.4 9.6 3.2 -9.80969
614 2 8 11.2 4.8 -9.82015
615 2 9.6 9.6 3.2 -9.86717
616 2 11.2 11.2 4.8 -9.88305
617 3 12.8 9.6 3.2 -11.3612
618 1 14.4 11.2 4.8 -11.8533
619 3 16 9.6 3.2 -11.3051
620 1 17.6 11.2 4.8 -11.7736
621 2 19.2 9.6 3.2 -9.85802
622 2 20.8 11.2 4.8 -9.86452
623 1 22.4 9.6 3.2 -11.7903
624 2 24 11.2 4.8 -9.86492
625 2 25.6 9.6 3.2 -9.82622
626 2 27.2 11.2 4.8 -9.91807
627 2 28.8 9.6 3.2 -9.88612
628 2 30.4 11.2 4.8 -9.91676
629 2 32 9.6 3.2 -9.91239
630 2 33.6 11.2 4.8 -9.91001
631 2 35.2 9.6 3.2 -9.90426
632 3 36.8 11.2 4.8 -11.2697
633 2 38.4 9.6 3.2 -9.90436
634 2 40 11.2 4.8 -9.91266
635 2 41.6 9.6 3.2 -9.85653
636 2 43.2 11.2 4.8 -9.85693
637 1 44.8 9.6 3.2 -11.751
638 2 46.4 11.2 4.8 -9.80884
639 1 48 9.6 3.2 -11.7136
640 4 49.6 11.2 4.8 -13.2797
641 2 0 12.8 3.2 -9.92155
642 3 1.6 14.4 4.8 -11.3562
643 4 3.2 12.8 3.2 -13.3998
644 2 4.8 14.4 4.8 -9.86203
645 1 6.4 12.8 3.2 -11.7524
646 3 8 14.4 4.8 -11.2557
647 2 9.6 12.8 3.2 -9.88783
648 2 11.2 14.4 4.8 -9.98135
649 3 12.8 12.8 3.2 -11.426
650 2 14.4 14.4 4.8 -9.87157
651 3 16 12.8 3.2 -11.3296
652 1 17.6 14.4 4.8 -11.7631
653 2 19.2 12.8 3.2 -9.85473
654 2 20.8 14.4 4.8 -9.86557
655 4 22.4 12.8 3.2 -13.3365
656 2 24 14.4 4.8 -9.88712
657 2 25.6 12.8 3.2 -9.92526
658 2 27.2 14.4 4.8 -9.90368
659 3 28.8 12.8 3.2 -11.3782
660 2 30.4 14.4 4.8 -9.93147
661 3 32 12.8 3.2 -11.387
662 4 33.6 14.4 4.8 -13.4412
663 3 35.2 12.8 3.2 -11.296
664 1 36.8 14.4 4.8 -11.7725
665 2 38.4 12.8 3.2 -9.86917
666 2 40 14.4 4.8 -9.85991
667 2 41.6 12.8 3.2 -9.90526
668 2 43.2 14.4 4.8 -9.90785
669 2 44.8 12.8 3.2 -9.88705
670 4 46.4 14.4 4.8 -13.3617
671 2 48 12.8 3.2 -9.87126
672 2 49.6 14.4 4.8 -9.91571
673 2 0 16 3.2 -9.9142
674 1 1.6 17.6 4.8 -11.7763
675 2 3.2 16 3.2 -9.90623
676 2 4.8 17.6 4.8 -9.88996
677 1 6.4 16 3.2 -11.788
678 2 8 17.6 4.8 -9.83268
679 1 9.6 16 3.2 -11.8453
680 3 11.2 17.6 4.8 -11.3995
681 2 12.8 16 3.2 -9.95789
682 2 14.4 17.6 4.8 -9.92831
683 2 16 16 3.2 -9.8853
684 2 17.6 17.6 4.8 -9.90197
685 2 19.2 16 3.2 -9.85238
686 3 20.8 17.6 4.8 -11.329
687 1 22.4 16 3.2 -11.7818
688 3 24 17.6 4.8 -11.2955
689 2 25.6 16 3.2 -9.85803
690 4 27.2 17.6 4.8 -13.4028
691 3 28.8 16 3.2 -11.3523
692 2 30.4 17.6 4.8 -9.93114
693 3 32 16 3.2 -11.4425
694 3 33.6 17.6 4.8 -11.3727
695 3 35.2 16 3.2 -11.3663
696 1 36.8 17.6 4.8 -11.8442
697 3 38.4 16 3.2 -11.2663
698 1 40 17.6 4.8 -11.7919
699 2 41.6 16 3.2 -9.88999
700 2 43.2 17.6 4.8 -9.88542
701 2 44.8 16 3.2 -9.89487
702 4 46.4 17.6 4.8 -13.4164
703 2 48 16 3.2 -9.88921
704 4 49.6 17.6 4.8 -13.3045
705 4 0 19.2 3.2 -13.3388
706 2 1.6 20.8 4.8 -9.86962
707 2 3.2 19.2 3.2 -9.85822
708 3 4.8 20.8 4.8 -11.2575
709 1 6.4 19.2 3.2 -11.8013
710 3 8 20.8 4.8 -11.2402
711 1 9.6 19.2 3.2 -11.8366
712 3 11.2 20.8 4.8 -11.3837
713 2 12.8 19.2 3.2 -9.94019
714 4 14.4 20.8 4.8 -13.3941
715 2 16 19.2 3.2 -9.92852
716 2 17.6 20.8 4.8 -9.88365
717 2 19.2 19.2 3.2 -9.85002
718 3 20.8 20.8 4.8 -11.3263
719 1 22.4 19.2 3.2 -11.7815
720 3 24 20.8 4.8 -11.3566
721 2 25.6 19.2 3.2 -9.88262
722 2 27.2 20.8 4.8 -9.91735
723 2 28.8 19.2 3.2 -9.86848
724 4 30.4 20.8 4.8 -13.3919
725 3 32 19.2 3.2 -11.3752
726 2 33.6 20.8 4.8 -9.87323
727 3 35.2 19.2 3.2 -11.3911
728 1 36.8 20.8 4.8 -11.8136
729 3 38.4 19.2 3.2 -11.2764
730 1 40 20.8 4.8 -11.8139
731 3 41.6 19.2 3.2 -11.2993
732 2 43.2 20.8 4.8 -9.91477
733 3 44.8 19.2 3.2 -11.343
734 2 46.4 20.8 4.8 -9.85387
735 2 48 19.2 3.2 -9.89224
736 2 49.6 20.8 4.8 -9.87074
737 2 0 22.4 3.2 -9.88356
738 2 1.6 24 4.8 -9.85698
739 1 3.2 22.4 3.2 -11.7709
740 2 4.8 24 4.8 -9.75523
741 1 6.4 22.4 3.2 -11.7496
742 3 8 24 4.8 -11.2744
743 1 9.6 22.4 3.2 -11.8568
744 3 11.2 24 4.8 -11.3423
745 2 12.8 22.4 3.2 -9.90236
746 2 14.4 24 4.8 -9.85589
747 2 16 22.4 3.2 -9.86045
748 2 17.6 24 4.8 -9.84041
749 2 19.2 22.4 3.2 -9.84854
750 3 20.8 24 4.8 -11.3364
751 1 22.4 22.4 3.2 -11.8641
752 3 24 24 4.8 -11.3037
753 3 25.6 22.4 3.2 -11.3563
754 2 27.2 24 4.8 -9.9064
755 2 28.8 22.4 3.2 -9.9423
756 2 30.4 24 4.8 -9.92843
757 2 32 22.4 3.2 -9.913
758 2 33.6 24 4.8 -9.8904
759 3 35.2 22.4 3.2 -11.2653
760 1 36.8 24 4.8 -11.817
761 3 38.4 22.4 3.2 -11.2426
762 1 40 24 4.8 -11.814
763 3 41.6 22.4 3.2 -11.3016
764 2 43.2 24 4.8 -9.86327
765 2 44.8 22.4 3.2 -9.88731
766 4 46.4 24 4.8 -13.3389
767 2 48 22.4 3.2 -9.8668
768 2 49.6 24 4.8 -9.87412
769 2 0 25.6 3.2 -9.94352
771 2 3.2 25.6 3.2 -9.78728
773 1 6.4 25.6 3.2 -11.8176
775 4 9.6 25.6 3.2 -13.3637
777 2 12.8 25.6 3.2 -9.84973
779 2 16 25.6 3.2 -9.8536
781 1 19.2 25.6 3.2 -11.776
783 1 22.4 25.6 3.2 -11.8135
785 1 25.6 25.6 3.2 -11.8013
787 2 28.8 25.6 3.2 -9.89918
789 2 32 25.6 3.2 -9.94507
791 2 35.2 25.6 3.2 -9.90865
793 3 38.4 25.6 3.2 -11.2016
795 3 41.6 25.6 3.2 -11.2715
797 2 44.8 25.6 3.2 -9.89441
799 2 48 25.6 3.2 -9.85499
770 2 1.6 27.2 4.8 -9.86018
801 2 0 28.8 3.2 -9.85037
772 2 4.8 27.2 4.8 -9.81914
803 1 3.2 28.8 3.2 -11.7862
774 3 8 27.2 4.8 -11.3557
805 1 6.4 28.8 3.2 -11.8521
776 4 11.2 27.2 4.8 -13.3168
807 2 9.6 28.8 3.2 -9.85073
778 2 14.4 27.2 4.8 -9.89097
809 1 12.8 28.8 3.2 -11.7741
780 2 17.6 27.2 4.8 -9.78293
811 2 16 28.8 3.2 -9.90026
782 3 20.8 27.2 4.8 -11.1657
813 1 19.2 28.8 3.2 -11.7559
784 3 24 27.2 4.8 -11.2003
815 1 22.4 28.8 3.2 -11.7799
817 1 25.6 28.8 3.2 -11.793
786 2 27.2 27.2 4.8 -9.86892
819 2 28.8 28.8 3.2 -9.86295
788 2 30.4 27.2 4.8 -9.93669
821 2 32 28.8 3.2 -9.86033
790 3 33.6 27.2 4.8 -11.3427
823 2 35.2 28.8 3.2 -9.88917
792 1 36.8 27.2 4.8 -11.8217
825 2 38.4 28.8 3.2 -9.80874
794 1 40 27.2 4.8 -11.7976
827 3 41.6 28.8 3.2 -11.2687
796 4 43.2 27.2 4.8 -13.3744
829 2 44.8 28.8 3.2 -9.88272
798 2 46.4 27.2 4.8 -9.81091
831 1 48 28.8 3.2 -11.8003
800 2 49.6 27.2 4.8 -9.87987
802 2 1.6 30.4 4.8 -9.88104
833 1 0 32 3.2 -11.8051
804 3 4.8 30.4 4.8 -11.1975
835 1 3.2 32 3.2 -11.721
806 3 8 30.4 4.8 -11.4123
837 1 6.4 32 3.2 -11.8046
808 2 11.2 30.4 4.8 -9.92728
839 2 9.6 32 3.2 -9.89021
810 2 14.4 30.4 4.8 -9.92063
841 2 12.8 32 3.2 -9.96543
812 2 17.6 30.4 4.8 -9.83101
843 2 16 32 3.2 -9.89389
814 3 20.8 30.4 4.8 -11.1629
845 1 19.2 32 3.2 -11.7322
816 3 24 30.4 4.8 -11.3331
847 1 22.4 32 3.2 -11.8169
849 1 25.6 32 3.2 -11.7919
818 2 27.2 30.4 4.8 -9.89138
851 2 28.8 32 3.2 -9.85901
820 2 30.4 30.4 4.8 -9.87031
853 2 32 32 3.2 -9.7545
822 1 33.6 30.4 4.8 -11.7497
855 3 35.2 32 3.2 -11.2661
824 1 36.8 30.4 4.8 -11.772
857 3 38.4 32 3.2 -11.2623
826 1 40 30.4 4.8 -11.8119
859 3 41.6 32 3.2 -11.2964
828 2 43.2 30.4 4.8 -9.82723
861 2 44.8 32 3.2 -9.90473
830 2 46.4 30.4 4.8 -9.88268
863 1 48 32 3.2 -11.7646
832 2 49.6 30.4 4.8 -9.8124
834 3 1.6 33.6 4.8 -11.3018
865 2 0 35.2 3.2 -9.83183
836 2 4.8 33.6 4.8 -9.75174
867 1 3.2 35.2 3.2 -11.7656
838 3 8 33.6 4.8 -11.3812
869 1 6.4 35.2 3.2 -11.809
840 2 11.2 33.6 4.8 -9.98471
871 4 9.6 35.2 3.2 -13.4789
842 2 14.4 33.6 4.8 -9.91202
873 3 12.8 35.2 3.2 -11.4031
844 4 17.6 33.6 4.8 -13.3114
875 2 16 35.2 3.2 -9.89953
846 2 20.8 33.6 4.8 -9.81585
877 2 19.2 35.2 3.2 -9.83758
848 3 24 33.6 4.8 -11.2222
879 4 22.4 35.2 3.2 -13.3436
881 1 25.6 35.2 3.2 -11.7679
850 2 27.2 33.6 4.8 -9.88484
883 2 28.8 35.2 3.2 -9.94304
852 2 30.4 33.6 4.8 -9.90313
885 2 32 35.2 3.2 -9.83419
854 1 33.6 33.6 4.8 -11.7886
887 3 35.2 35.2 3.2 -11.2382
856 1 36.8 33.6 4.8 -11.8496
889 2 38.4 35.2 3.2 -9.86933
858 2 40 33.6 4.8 -9.84893
891 2 41.6 35.2 3.2 -9.90825
860 4 43.2 33.6 4.8 -13.428
893 2 44.8 35.2 3.2 -9.85155
862 2 46.4 33.6 4.8 -9.89081
895 2 48 35.2 3.2 -9.87768
864 2 49.6 33.6 4.8 -9.91641
866 2 1.6 36.8 4.8 -9.84953
897 1 0 38.4 3.2 -11.831
868 2 4.8 36.8 4.8 -9.87498
899 1 3.2 38.4 3.2 -11.7792
870 3 8 36.8 4.8 -11.3759
901 4 6.4 38.4 3.2 -13.411
872 4 11.2 36.8 4.8 -13.4369
903 2 9.6 38.4 3.2 -9.90741
874 1 14.4 36.8 4.8 -11.8695
905 3 12.8 38.4 3.2 -11.3888
876 1 17.6 36.8 4.8 -11.7732
907 3 16 38.4 3.2 -11.3038
878 2 20.8 36.8 4.8 -9.86947
909 3 19.2 38.4 3.2 -11.2625
880 2 24 36.8 4.8 -9.88523
911 2 22.4 38.4 3.2 -9.88825
913 2 25.6 38.4 3.2 -9.86662
882 2 27.2 36.8 4.8 -9.87202
915 3 28.8 38.4 3.2 -11.3078
884 2 30.4 36.8 4.8 -9.90513
917 3 32 38.4 3.2 -11.2995
886 1 33.6 36.8 4.8 -11.8004
919 3 35.2 38.4 3.2 -11.2352
888 4 36.8 36.8 4.8 -13.3528
921 2 38.4 38.4 3.2 -9.83947
890 2 40 36.8 4.8 -9.90399
923 1 41.6 38.4 3.2 -11.7763
892 2 43.2 36.8 4.8 -9.86398
925 1 44.8 38.4 3.2 -11.7785
894 2 46.4 36.8 4.8 -9.87278
927 1 48 38.4 3.2 -11.8174
896 2 49.6 36.8 4.8 -9.91874
898 2 1.6 40 4.8 -9.88175
929 1 0 41.6 3.2 -11.8178
900 2 4.8 40 4.8 -9.87199
931 2 3.2 41.6 3.2 -9.88137
902 4 8 40 4.8 -13.4382
933 2 6.4 41.6 3.2 -9.88341
904 1 11.2 40 4.8 -11.8845
935 2 9.6 41.6 3.2 -9.8857
906 1 14.4 40 4.8 -11.855
937 3 12.8 41.6 3.2 -11.3273
908 1 17.6 40 4.8 -11.8313
939 3 16 41.6 3.2 -11.3567
910 1 20.8 40 4.8 -11.8193
941 3 19.2 41.6 3.2 -11.3282
912 2 24 40 4.8 -9.83411
943 3 22.4 41.6 3.2 -11.2751
945 3 25.6 41.6 3.2 -11.2321
914 1 27.2 40 4.8 -11.7895
947 2 28.8 41.6 3.2 -9.83237
916 1 30.4 40 4.8 -11.8003
949 3 32 41.6 3.2 -11.2667
918 1 33.6 40 4.8 -11.8251
951 3 35.2 41.6 3.2 -11.3269
920 4 36.8 40 4.8 -13.4468
953 2 38.4 41.6 3.2 -9.9132
922 2 40 40 4.8 -9.84411
955 2 41.6 41.6 3.2 -9.83401
924 2 43.2 40 4.8 -9.8696
957 1 44.8 41.6 3.2 -11.7573
926 3 46.4 40 4.8 -11.326
959 1 48 41.6 3.2 -11.8419
928 3 49.6 40 4.8 -11.3465
930 2 1.6 43.2 4.8 -9.85432
961 1 0 44.8 3.2 -11.8323
932 1 4.8 43.2 4.8 -11.8351
963 2 3.2 44.8 3.2 -9.85303
934 1 8 43.2 4.8 -11.8463
965 3 6.4 44.8 3.2 -11.3593
936 4 11.2 43.2 4.8 -13.375
967 2 9.6 44.8 3.2 -9.86889
938 1 14.4 43.2 4.8 -11.7735
969 2 12.8 44.8 3.2 -9.79044
940 2 17.6 43.2 4.8 -9.83847
971 2 16 44.8 3.2 -9.87843
942 1 20.8 43.2 4.8 -11.8386
973 2 19.2 44.8 3.2 -9.94795
944 1 24 43.2 4.8 -11.8692
975 3 22.4 44.8 3.2 -11.3444
977 2 25.6 44.8 3.2 -9.89323
946 1 27.2 43.2 4.8 -11.8307
979 3 28.8 44.8 3.2 -11.3675
948 4 30.4 43.2 4.8 -13.3831
981 2 32 44.8 3.2 -9.9078
950 1 33.6 43.2 4.8 -11.8419
983 2 35.2 44.8 3.2 -9.90549
952 2 36.8 43.2 4.8 -9.85842
985 2 38.4 44.8 3.2 -9.8444
954 4 40 43.2 4.8 -13.3733
987 1 41.6 44.8 3.2 -11.7456
956 2 43.2 43.2 4.8 -9.75783
989 1 44.8 44.8 3.2 -11.7636
958 3 46.4 43.2 4.8 -11.2001
991 1 48 44.8 3.2 -11.8252
960 2 49.6 43.2 4.8 -9.8615
962 2 1.6 46.4 4.8 -9.89943
993 4 0 48 3.2 -13.3723
964 4 4.8 46.4 4.8 -13.4149
995 1 3.2 48 3.2 -11.8009
966 2 8 46.4 4.8 -9.87511
997 2 6.4 48 3.2 -9.87466
968 2 11.2 46.4 4.8 -9.82431
999 4 9.6 48 3.2 -13.3506
970 1 14.4 46.4 4.8 -11.7568
1001 2 12.8 48 3.2 -9.83893
972 2 17.6 46.4 4.8 -9.93033
1003 2 16 48 3.2 -9.87314
974 3 20.8 46.4 4.8 -11.3071
1005 1 19.2 48 3.2 -11.8103
976 2 24 46.4 4.8 -9.85143
1007 4 22.4 48 3.2 -13.35
1009 1 25.6 48 3.2 -11.7551
978 4 27.2 46.4 4.8 -13.3482
1011 2 28.8 48 3.2 -9.88979
980 4 30.4 46.4 4.8 -13.3927
1013 2 32 48 3.2 -9.86589
982 1 33.6 46.4 4.8 -11.7178
1015 4 35.2 48 3.2 -13.3601
984 2 36.8 46.4 4.8 -9.91743
1017 2 38.4 48 3.2 -9.9161
986 2 40 46.4 4.8 -9.91597
1019 2 41.6 48 3.2 -9.88388
988 3 43.2 46.4 4.8 -11.2641
1021 4 44.8 48 3.2 -13.4242
990 3 46.4 46.4 4.8 -11.3086
1023 4 48 48 3.2 -13.4011
992 3 49.6 46.4 4.8 -11.3519
994 2 1.6 49.6 4.8 -9.8482
996 2 4.8 49.6 4.8 -9.86054
998 3 8 49.6 4.8 -11.3408
1000 2 11.2 49.6 4.8 -9.86813
1002 2 14.4 49.6 4.8 -9.89038
1004 3 17.6 49.6 4.8 -11.2981
1006 3 20.8 49.6 4.8 -11.2414
1008 3 24 49.6 4.8 -11.1958
1010 2 27.2 49.6 4.8 -9.90441
1012 2 30.4 49.6 4.8 -9.92831
1014 1 33.6 49.6 4.8 -11.6945
1016 3 36.8 49.6 4.8 -11.3054
1018 2 40 49.6 4.8 -9.92738
1020 3 43.2 49.6 4.8 -11.3542
1022 3 46.4 49.6 4.8 -11.3912
1024 3 49.6 49.6 4.8 -11.3878
1025 1 0 0 6.4 -11.837
1026 3 1.6 1.6 8 -11.3302
1027 1 3.2 0 6.4 -11.8034
1028 3 4.8 1.6 8 -11.378
1029 2 6.4 0 6.4 -9.87391
1030 2 8 1.6 8 -9.90811
1031 1 9.6 0 6.4 -11.8166
1032 3 11.2 1.6 8 -11.3284
1033 4 12.8 0 6.4 -13.3491
1034 3 14.4 1.6 8 -11.1958
1035 1 16 0 6.4 -11.8431
1036 3 17.6 1.6 8 -11.2429
1037 1 19.2 0 6.4 -11.841
1038 3 20.8 1.6 8 -11.3078
1039 1 22.4 0 6.4 -11.8414
1040 3 24 1.6 8 -11.3335
1041 1 25.6 0 6.4 -11.8698
1042 3 27.2 1.6 8 -11.39
1043 2 28.8 0 6.4 -9.92109
1044 3 30.4 1.6 8 -11.4013
1045 2 32 0 6.4 -9.86941
1046 2 33.6 1.6 8 -9.9064
1047 2 35.2 0 6.4 -9.81754
1048 2 36.8 1.6 8 -9.84347
1049 4 38.4 0 6.4 -13.3222
1050 3 40 1.6 8 -11.1961
1051 1 41.6 0 6.4 -11.7889
1052 3 43.2 1.6 8 -11.2705
1053 1 44.8 0 6.4 -11.8556
1054 3 46.4 1.6 8 -11.2759
1055 1 48 0 6.4 -11.8672
1056 3 49.6 1.6 8 -11.2387
1057 4 0 3.2 6.4 -13.3389
1058 3 1.6 4.8 8 -11.3368
1059 1 3.2 3.2 6.4 -11.8526
1060 3 4.8 4.8 8 -11.2285
1061 1 6.4 3.2 6.4 -11.8321
1062 2 8 4.8 8 -9.80626
1063 1 9.6 3.2 6.4 -11.8128
1064 3 11.2 4.8 8 -11.2524
1065 1 12.8 3.2 6.4 -11.7856
1066 2 14.4 4.8 8 -9.81457
1067 1 16 3.2 6.4 -11.7752
1068 3 17.6 4.8 8 -11.2905
1069 1 19.2 3.2 6.4 -11.8703
1070 3 20.8 4.8 8 -11.2712
1071 1 22.4 3.2 6.4 -11.8672
1072 3 24 4.8 8 -11.3081
1073 1 25.6 3.2 6.4 -11.8427
1074 3 27.2 4.8 8 -11.3317
1075 1 28.8 3.2 6.4 -11.842
1076 3 30.4 4.8 8 -11.3946
1077 2 32 3.2 6.4 -9.86781
1078 3 33.6 4.8 8 -11.3609
1079 2 35.2 3.2 6.4 -9.83701
1080 3 36.8 4.8 8 -11.3024
1081 4 38.4 3.2 6.4 -13.3092
1082 3 40 4.8 8 -11.2403
1083 1 41.6 3.2 6.4 -11.8039
1084 3 43.2 4.8 8 -11.2423
1085 1 44.8 3.2 6.4 -11.8276
1086 3 46.4 4.8 8 -11.307
1087 1 48 3.2 6.4 -11.8694
1088 3 49.6 4.8 8 -11.3043
1089 1 0 6.4 6.4 -11.8695
1090 3 1.6 8 8 -11.2402
1091 1 3.2 6.4 6.4 -11.8278
1092 2 4.8 8 8 -9.74253
1093 1 6.4 6.4 6.4 -11.7849
1094 3 8 8 8 -11.185
1095 1 9.6 6.4 6.4 -11.7617
1096 2 11.2 8 8 -9.88758
1097 1 12.8 6.4 6.4 -11.7363
1098 2 14.4 8 8 -9.85062
1099 2 16 6.4 6.4 -9.85169
1100 2 17.6 8 8 -9.86771
1101 2 19.2 6.4 6.4 -9.85387
1102 4 20.8 8 8 -13.3171
1103 1 22.4 6.4 6.4 -11.8104