ITEM: TIMESTEP
0
ITEM: NUMBER OF ATOMS
8192
ITEM: BOX BOUNDS pp pp pp
0.0000000000000000e+00 5.1200000000000003e+01
0.0000000000000000e+00 5.1200000000000003e+01
0.0000000000000000e+00 5.1200000000000003e+01
ITEM: ATOMS id type x y z c_eng
1 4 0 0 0 -13.4007
2 2 1.6 1.6 1.6 -9.83387
3 1 3.2 0 0 -11.7671
4 3 4.8 1.6 1.6 -11.3218
5 1 6.4 0 0 -11.7876
6 2 8 1.6 1.6 -9.8835
7 1 9.6 0 0 -11.7483
8 2 11.2 1.6 1.6 -9.84084
9 2 12.8 0 0 -9.82096
10 2 14.4 1.6 1.6 -9.78371
11 1 16 0 0 -11.7356
12 3 17.6 1.6 1.6 -11.2212
13 2 19.2 0 0 -9.88402
14 2 20.8 1.6 1.6 -9.90698
15 2 22.4 0 0 -9.92649
16 3 24 1.6 1.6 -11.32
17 2 25.6 0 0 -9.86959
18 3 27.2 1.6 1.6 -11.3309
19 1 28.8 0 0 -11.7748
20 2 30.4 1.6 1.6 -9.84547
21 1 32 0 0 -11.7483
22 3 33.6 1.6 1.6 -11.2745
23 1 35.2 0 0 -11.8415
24 3 36.8 1.6 1.6 -11.1639
25 1 38.4 0 0 -11.8415
26 3 40 1.6 1.6 -11.2758
27 1 41.6 0 0 -11.8698
28 3 43.2 1.6 1.6 -11.2753
29 1 44.8 0 0 -11.8556
30 3 46.4 1.6 1.6 -11.2753
31 4 48 0 0 -13.3833
32 3 49.6 1.6 1.6 -11.3667
33 2 0 3.2 0 -9.79544
34 3 1.6 4.8 1.6 -11.3021
35 1 3.2 3.2 0 -11.7559
36 3 4.8 4.8 1.6 -11.3494
37 2 6.4 3.2 0 -9.84524
38 1 8 4.8 1.6 -11.7351
39 2 9.6 3.2 0 -9.81342
40 1 11.2 4.8 1.6 -11.7725
41 2 12.8 3.2 0 -9.89936
42 2 14.4 4.8 1.6 -9.83597
43 1 16 3.2 0 -11.7697
44 2 17.6 4.8 1.6 -9.90924
45 2 19.2 3.2 0 -9.91881
46 2 20.8 4.8 1.6 -9.94589
47 2 22.4 3.2 0 -9.91881
48 2 24 4.8 1.6 -9.88978
49 4 25.6 3.2 0 -13.4201
50 3 27.2 4.8 1.6 -11.2683
51 2 28.8 3.2 0 -9.8514
52 3 30.4 4.8 1.6 -11.3016
53 2 32 3.2 0 -9.8645
54 3 33.6 4.8 1.6 -11.362
55 1 35.2 3.2 0 -11.8372
56 2 36.8 4.8 1.6 -9.85556
57 1 38.4 3.2 0 -11.7804
58 3 40 4.8 1.6 -11.2713
59 1 41.6 3.2 0 -11.8679
60 3 43.2 4.8 1.6 -11.3081
61 1 44.8 3.2 0 -11.8414
62 3 46.4 4.8 1.6 -11.2417
63 1 48 3.2 0 -11.8817
64 3 49.6 4.8 1.6 -11.3059
65 1 0 6.4 0 -11.8431
66 3 1.6 8 1.6 -11.3582
67 1 3.2 6.4 0 -11.8157
68 3 4.8 8 1.6 -11.4237
69 2 6.4 6.4 0 -9.86724
70 2 8 8 1.6 -9.92092
71 2 9.6 6.4 0 -9.83704
72 4 11.2 8 1.6 -13.3132
73 2 12.8 6.4 0 -9.86439
74 4 14.4 8 1.6 -13.3854
75 2 16 6.4 0 -9.90559
76 4 17.6 8 1.6 -13.4219
77 2 19.2 6.4 0 -9.8908
78 2 20.8 8 1.6 -9.90587
79 2 22.4 6.4 0 -9.91881
80 3 24 8 1.6 -11.323
81 1 25.6 6.4 0 -11.8085
82 3 27.2 8 1.6 -11.2717
83 1 28.8 6.4 0 -11.816
84 3 30.4 8 1.6 -11.2372
85 1 32 6.4 0 -11.858
86 2 33.6 8 1.6 -9.88512
87 2 35.2 6.4 0 -9.85361
88 3 36.8 8 1.6 -11.3118
89 1 38.4 6.4 0 -11.8038
90 2 40 8 1.6 -9.86264
91 2 41.6 6.4 0 -9.82808
92 3 43.2 8 1.6 -11.2971
93 1 44.8 6.4 0 -11.8574
94 3 46.4 8 1.6 -11.2756
95 1 48 6.4 0 -11.8115
96 3 49.6 8 1.6 -11.3063
97 2 0 9.6 0 -9.83726
98 2 1.6 11.2 1.6 -9.94345
99 4 3.2 9.6 0 -13.4294
100 2 4.8 11.2 1.6 -9.93736
101 4 6.4 9.6 0 -13.407
102 3 8 11.2 1.6 -11.421
103 2 9.6 9.6 0 -9.89044
104 2 11.2 11.2 1.6 -9.89499
105 4 12.8 9.6 0 -13.3761
106 2 14.4 11.2 1.6 -9.91692
107 3 16 9.6 0 -11.316
108 2 17.6 11.2 1.6 -9.89971
109 1 19.2 9.6 0 -11.7659
110 2 20.8 11.2 1.6 -9.84143
111 4 22.4 9.6 0 -13.362
112 2 24 11.2 1.6 -9.86332
113 2 25.6 9.6 0 -9.86311
114 2 27.2 11.2 1.6 -9.87025
115 4 28.8 9.6 0 -13.343
116 2 30.4 11.2 1.6 -9.84557
117 4 32 9.6 0 -13.343
118 2 33.6 11.2 1.6 -9.90646
119 4 35.2 9.6 0 -13.4175
120 3 36.8 11.2 1.6 -11.3943
121 1 38.4 9.6 0 -11.775
122 2 40 11.2 1.6 -9.88242
123 2 41.6 9.6 0 -9.88477
124 2 43.2 11.2 1.6 -9.8859
125 4 44.8 9.6 0 -13.3542
126 2 46.4 11.2 1.6 -9.90667
127 1 48 9.6 0 -11.8571
128 3 49.6 11.2 1.6 -11.3623
129 2 0 12.8 0 -9.90971
130 1 1.6 14.4 1.6 -11.7946
131 3 3.2 12.8 0 -11.2771
132 1 4.8 14.4 1.6 -11.7267
133 2 6.4 12.8 0 -9.87821
134 4 8 14.4 1.6 -13.2954
135 2 9.6 12.8 0 -9.9473
136 4 11.2 14.4 1.6 -13.4245
137 4 12.8 12.8 0 -13.3121
138 2 14.4 14.4 1.6 -9.8328
139 4 16 12.8 0 -13.3897
140 2 17.6 14.4 1.6 -9.8941
141 2 19.2 12.8 0 -9.86684
142 1 20.8 14.4 1.6 -11.7493
143 2 22.4 12.8 0 -9.88107
144 1 24 14.4 1.6 -11.7133
145 2 25.6 12.8 0 -9.87418
146 2 27.2 14.4 1.6 -9.86013
147 1 28.8 12.8 0 -11.7767
148 2 30.4 14.4 1.6 -9.90259
149 2 32 12.8 0 -9.8778
150 4 33.6 14.4 1.6 -13.34
151 2 35.2 12.8 0 -9.93999
152 4 36.8 14.4 1.6 -13.4544
153 2 38.4 12.8 0 -9.91992
154 2 40 14.4 1.6 -9.83551
155 2 41.6 12.8 0 -9.90725
156 4 43.2 14.4 1.6 -13.3948
157 2 44.8 12.8 0 -9.88206
158 1 46.4 14.4 1.6 -11.8195
159 3 48 12.8 0 -11.3095
160 1 49.6 14.4 1.6 -11.7698
161 2 0 16 0 -9.83656
162 2 1.6 17.6 1.6 -9.82129
163 2 3.2 16 0 -9.86301
164 2 4.8 17.6 1.6 -9.85239
165 2 6.4 16 0 -9.81579
166 1 8 17.6 1.6 -11.7588
167 3 9.6 16 0 -11.3342
168 4 11.2 17.6 1.6 -13.28
169 2 12.8 16 0 -9.86695
170 1 14.4 17.6 1.6 -11.7259
171 2 16 16 0 -9.85827
172 1 17.6 17.6 1.6 -11.7668
173 2 19.2 16 0 -9.8819
174 4 20.8 17.6 1.6 -13.326
175 2 22.4 16 0 -9.85755
176 2 24 17.6 1.6 -9.85942
177 4 25.6 16 0 -13.37
178 2 27.2 17.6 1.6 -9.9215
179 4 28.8 16 0 -13.3606
180 2 30.4 17.6 1.6 -9.86913
181 2 32 16 0 -9.88191
182 4 33.6 17.6 1.6 -13.3913
183 2 35.2 16 0 -9.89611
184 1 36.8 17.6 1.6 -11.8162
185 3 38.4 16 0 -11.3345
186 1 40 17.6 1.6 -11.8817
187 3 41.6 16 0 -11.3357
188 4 43.2 17.6 1.6 -13.3558
189 3 44.8 16 0 -11.272
190 1 46.4 17.6 1.6 -11.8303
191 3 48 16 0 -11.2051
192 1 49.6 17.6 1.6 -11.7963
193 2 0 19.2 0 -9.82305
194 1 1.6 20.8 1.6 -11.6977
195 4 3.2 19.2 0 -13.2966
196 2 4.8 20.8 1.6 -9.80915
197 2 6.4 19.2 0 -9.90996
198 4 8 20.8 1.6 -13.347
199 2 9.6 19.2 0 -9.88234
200 2 11.2 20.8 1.6 -9.89937
201 4 12.8 19.2 0 -13.3624
202 2 14.4 20.8 1.6 -9.88274
203 2 16 19.2 0 -9.88502
204 4 17.6 20.8 1.6 -13.3692
205 2 19.2 19.2 0 -9.86133
206 2 20.8 20.8 1.6 -9.87834
207 2 22.4 19.2 0 -9.87386
208 2 24 20.8 1.6 -9.87041
209 2 25.6 19.2 0 -9.84613
210 4 27.2 20.8 1.6 -13.3713
211 2 28.8 19.2 0 -9.87837
212 1 30.4 20.8 1.6 -11.7842
213 4 32 19.2 0 -13.384
214 2 33.6 20.8 1.6 -9.83327
215 3 35.2 19.2 0 -11.2952
216 1 36.8 20.8 1.6 -11.8416
217 3 38.4 19.2 0 -11.2423
218 1 40 20.8 1.6 -11.812
219 3 41.6 19.2 0 -11.2378
220 1 43.2 20.8 1.6 -11.8437
221 3 44.8 19.2 0 -11.2748
222 4 46.4 20.8 1.6 -13.3824
223 3 48 19.2 0 -11.27
224 2 49.6 20.8 1.6 -9.77057
225 2 0 22.4 0 -9.84958
226 2 1.6 24 1.6 -9.77728
227 1 3.2 22.4 0 -11.6911
228 2 4.8 24 1.6 -9.87405
229 2 6.4 22.4 0 -9.84622
230 3 8 24 1.6 -11.2823
231 4 9.6 22.4 0 -13.4019
232 2 11.2 24 1.6 -9.90462
233 2 12.8 22.4 0 -9.86164
234 2 14.4 24 1.6 -9.90817
235 2 16 22.4 0 -9.957
236 2 17.6 24 1.6 -9.89833
237 2 19.2 22.4 0 -9.95699
238 2 20.8 24 1.6 -9.93685
239 2 22.4 22.4 0 -9.90627
240 2 24 24 1.6 -9.9263
241 1 25.6 22.4 0 -11.7659
242 2 27.2 24 1.6 -9.88912
243 2 28.8 22.4 0 -9.86403
244 1 30.4 24 1.6 -11.824
245 2 32 22.4 0 -9.87515
246 2 33.6 24 1.6 -9.81756
247 3 35.2 22.4 0 -11.3286
248 1 36.8 24 1.6 -11.8097
249 3 38.4 22.4 0 -11.2023
250 1 40 24 1.6 -11.7649
251 2 41.6 22.4 0 -9.77648
252 4 43.2 24 1.6 -13.3507
253 3 44.8 22.4 0 -11.2739
254 1 46.4 24 1.6 -11.7976
255 3 48 22.4 0 -11.3033
256 1 49.6 24 1.6 -11.8155
257 2 0 25.6 0 -9.91622
259 4 3.2 25.6 0 -13.3386
261 1 6.4 25.6 0 -11.7953
263 1 9.6 25.6 0 -11.7567
265 1 12.8 25.6 0 -11.7869
267 2 16 25.6 0 -9.86723
269 2 19.2 25.6 0 -9.93532
271 2 22.4 25.6 0 -9.94954
273 2 25.6 25.6 0 -9.892
275 2 28.8 25.6 0 -9.88924
277 2 32 25.6 0 -9.8728
279 3 35.2 25.6 0 -11.1996
281 2 38.4 25.6 0 -9.75501
283 2 41.6 25.6 0 -9.81653
285 3 44.8 25.6 0 -11.2345
287 3 48 25.6 0 -11.274
258 2 1.6 27.2 1.6 -9.96575
289 3 0 28.8 0 -11.3522
260 3 4.8 27.2 1.6 -11.3465
291 2 3.2 28.8 0 -9.93369
262 3 8 27.2 1.6 -11.3297
293 4 6.4 28.8 0 -13.3495
264 2 11.2 27.2 1.6 -9.90863
295 1 9.6 28.8 0 -11.8068
266 2 14.4 27.2 1.6 -9.84029
297 2 12.8 28.8 0 -9.85345
268 4 17.6 27.2 1.6 -13.3695
299 2 16 28.8 0 -9.866
270 4 20.8 27.2 1.6 -13.4171
301 2 19.2 28.8 0 -9.92559
272 2 24 27.2 1.6 -9.94945
303 2 22.4 28.8 0 -9.88199
305 2 25.6 28.8 0 -9.89048
274 2 27.2 27.2 1.6 -9.85228
307 2 28.8 28.8 0 -9.87219
276 4 30.4 27.2 1.6 -13.3301
309 3 32 28.8 0 -11.2665
278 1 33.6 27.2 1.6 -11.8325
311 3 35.2 28.8 0 -11.2048
280 1 36.8 27.2 1.6 -11.7864
313 2 38.4 28.8 0 -9.80962
282 2 40 27.2 1.6 -9.84489
315 2 41.6 28.8 0 -9.85916
284 2 43.2 27.2 1.6 -9.87449
317 2 44.8 28.8 0 -9.8722
286 1 46.4 27.2 1.6 -11.8102
319 3 48 28.8 0 -11.2945
288 2 49.6 27.2 1.6 -9.82303
290 3 1.6 30.4 1.6 -11.4373
321 3 0 32 0 -11.374
292 3 4.8 30.4 1.6 -11.4466
323 2 3.2 32 0 -9.88757
294 3 8 30.4 1.6 -11.3876
325 1 6.4 32 0 -11.8332
296 2 11.2 30.4 1.6 -9.91465
327 4 9.6 32 0 -13.3401
298 1 14.4 30.4 1.6 -11.7673
329 2 12.8 32 0 -9.86193
300 2 17.6 30.4 1.6 -9.86198
331 2 16 32 0 -9.8435
302 4 20.8 30.4 1.6 -13.3353
333 2 19.2 32 0 -9.87209
304 2 24 30.4 1.6 -9.84162
335 2 22.4 32 0 -9.89736
337 3 25.6 32 0 -11.3184
306 1 27.2 30.4 1.6 -11.8045
339 2 28.8 32 0 -9.78317
308 1 30.4 30.4 1.6 -11.8023
341 2 32 32 0 -9.77556
310 1 33.6 30.4 1.6 -11.8119
343 3 35.2 32 0 -11.2025
312 1 36.8 30.4 1.6 -11.8008
345 2 38.4 32 0 -9.87983
314 2 40 30.4 1.6 -9.8904
347 2 41.6 32 0 -9.92616
316 2 43.2 30.4 1.6 -9.80695
349 2 44.8 32 0 -9.87321
318 4 46.4 30.4 1.6 -13.3645
351 4 48 32 0 -13.4565
320 4 49.6 30.4 1.6 -13.4286
322 3 1.6 33.6 1.6 -11.4107
353 1 0 35.2 0 -11.8446
324 3 4.8 33.6 1.6 -11.3368
355 1 3.2 35.2 0 -11.8701
326 3 8 33.6 1.6 -11.353
357 1 6.4 35.2 0 -11.8107
328 2 11.2 33.6 1.6 -9.91595
359 1 9.6 35.2 0 -11.7725
330 2 14.4 33.6 1.6 -9.90265
361 1 12.8 35.2 0 -11.7736
332 2 17.6 33.6 1.6 -9.81436
363 2 16 35.2 0 -9.86374
334 1 20.8 33.6 1.6 -11.7836
365 2 19.2 35.2 0 -9.84953
336 2 24 33.6 1.6 -9.84201
367 2 22.4 35.2 0 -9.87057
369 3 25.6 35.2 0 -11.3649
338 1 27.2 33.6 1.6 -11.8527
371 3 28.8 35.2 0 -11.2022
340 1 30.4 33.6 1.6 -11.7806
373 3 32 35.2 0 -11.1664
342 1 33.6 33.6 1.6 -11.7978
375 3 35.2 35.2 0 -11.1953
344 1 36.8 33.6 1.6 -11.7928
377 2 38.4 35.2 0 -9.90087
346 2 40 33.6 1.6 -9.90819
379 2 41.6 35.2 0 -9.88048
348 2 43.2 33.6 1.6 -9.87963
381 4 44.8 35.2 0 -13.4379
350 3 46.4 33.6 1.6 -11.3519
383 2 48 35.2 0 -9.8094
352 3 49.6 33.6 1.6 -11.3771
354 3 1.6 36.8 1.6 -11.2042
385 1 0 38.4 0 -11.812
356 3 4.8 36.8 1.6 -11.2402
387 1 3.2 38.4 0 -11.8553
358 3 8 36.8 1.6 -11.2968
389 1 6.4 38.4 0 -11.8415
360 2 11.2 36.8 1.6 -9.86231
391 1 9.6 38.4 0 -11.7945
362 2 14.4 36.8 1.6 -9.84374
393 2 12.8 38.4 0 -9.85328
364 1 17.6 36.8 1.6 -11.8259
395 2 16 38.4 0 -9.89139
366 1 20.8 36.8 1.6 -11.8102
397 2 19.2 38.4 0 -9.87369
368 4 24 36.8 1.6 -13.4373
399 3 22.4 38.4 0 -11.2872
401 3 25.6 38.4 0 -11.3557
370 1 27.2 36.8 1.6 -11.8173
403 2 28.8 38.4 0 -9.85851
372 1 30.4 36.8 1.6 -11.7872
405 2 32 38.4 0 -9.83678
374 1 33.6 36.8 1.6 -11.7508
407 2 35.2 38.4 0 -9.83581
376 1 36.8 36.8 1.6 -11.7525
409 2 38.4 38.4 0 -9.8889
378 2 40 36.8 1.6 -9.88632
411 4 41.6 38.4 0 -13.4287
380 3 43.2 36.8 1.6 -11.2951
413 1 44.8 38.4 0 -11.8545
382 2 46.4 36.8 1.6 -9.82859
415 1 48 38.4 0 -11.8177
384 3 49.6 36.8 1.6 -11.2386
386 3 1.6 40 1.6 -11.2756
417 1 0 41.6 0 -11.8414
388 3 4.8 40 1.6 -11.3071
419 1 3.2 41.6 0 -11.8954
390 2 8 40 1.6 -9.892
421 2 6.4 41.6 0 -9.82133
392 2 11.2 40 1.6 -9.87663
423 2 9.6 41.6 0 -9.8928
394 1 14.4 40 1.6 -11.7749
425 2 12.8 41.6 0 -9.86396
396 2 17.6 40 1.6 -9.82442
427 2 16 41.6 0 -9.90044
398 2 20.8 40 1.6 -9.89387
429 2 19.2 41.6 0 -9.9366
400 2 24 40 1.6 -9.86903
431 2 22.4 41.6 0 -9.84041
433 2 25.6 41.6 0 -9.80666
402 2 27.2 40 1.6 -9.92785
435 4 28.8 41.6 0 -13.3946
404 2 30.4 40 1.6 -9.86132
437 2 32 41.6 0 -9.85311
406 1 33.6 40 1.6 -11.8139
439 2 35.2 41.6 0 -9.88949
408 2 36.8 40 1.6 -9.82884
441 2 38.4 41.6 0 -9.88009
410 2 40 40 1.6 -9.9076
443 1 41.6 41.6 0 -11.8285
412 3 43.2 40 1.6 -11.2362
445 1 44.8 41.6 0 -11.8413
414 3 46.4 40 1.6 -11.2036
447 1 48 41.6 0 -11.8558
416 3 49.6 40 1.6 -11.242
418 3 1.6 43.2 1.6 -11.3086
449 1 0 44.8 0 -11.8703
420 3 4.8 43.2 1.6 -11.3663
451 4 3.2 44.8 0 -13.3828
422 2 8 43.2 1.6 -9.8659
453 4 6.4 44.8 0 -13.3935
424 1 11.2 43.2 1.6 -11.742
455 2 9.6 44.8 0 -9.86154
426 1 14.4 43.2 1.6 -11.7647
457 3 12.8 44.8 0 -11.3096
428 2 17.6 43.2 1.6 -9.92677
459 2 16 44.8 0 -9.94938
430 2 20.8 43.2 1.6 -9.89088
461 2 19.2 44.8 0 -9.91361
432 1 24 43.2 1.6 -11.7452
463 4 22.4 44.8 0 -13.2809
465 2 25.6 44.8 0 -9.79052
434 2 27.2 43.2 1.6 -9.84275
467 2 28.8 44.8 0 -9.86039
436 2 30.4 43.2 1.6 -9.90201
469 4 32 44.8 0 -13.3704
438 2 33.6 43.2 1.6 -9.86105
471 2 35.2 44.8 0 -9.86723
440 1 36.8 43.2 1.6 -11.8007
473 2 38.4 44.8 0 -9.84564
442 2 40 43.2 1.6 -9.83764
475 1 41.6 44.8 0 -11.855
444 3 43.2 43.2 1.6 -11.2384
477 1 44.8 44.8 0 -11.8697
446 3 46.4 43.2 1.6 -11.3086
479 4 48 44.8 0 -13.365
448 3 49.6 43.2 1.6 -11.2753
450 3 1.6 46.4 1.6 -11.2753
481 1 0 48 0 -11.8554
452 3 4.8 46.4 1.6 -11.3656
483 1 3.2 48 0 -11.8692
454 2 8 46.4 1.6 -9.88834
485 4 6.4 48 0 -13.4242
456 4 11.2 46.4 1.6 -13.3572
487 2 9.6 48 0 -9.87508
458 2 14.4 46.4 1.6 -9.88149
489 2 12.8 48 0 -9.92783
460 2 17.6 46.4 1.6 -9.92067
491 2 16 48 0 -9.8543
462 2 20.8 46.4 1.6 -9.91317
493 2 19.2 48 0 -9.90385
464 2 24 46.4 1.6 -9.87838
495 2 22.4 48 0 -9.89986
497 2 25.6 48 0 -9.94702
466 4 27.2 46.4 1.6 -13.4176
499 2 28.8 48 0 -9.83438
468 2 30.4 46.4 1.6 -9.86003
501 1 32 48 0 -11.7758
470 2 33.6 46.4 1.6 -9.83496
503 1 35.2 48 0 -11.7872
472 2 36.8 46.4 1.6 -9.81196
505 1 38.4 48 0 -11.8269
474 3 40 46.4 1.6 -11.3328
507 4 41.6 48 0 -13.3639
476 3 43.2 46.4 1.6 -11.3081
509 1 44.8 48 0 -11.8555
478 3 46.4 46.4 1.6 -11.3086
511 1 48 48 0 -11.8702
480 3 49.6 46.4 1.6 -11.2753
482 3 1.6 49.6 1.6 -11.2727
484 3 4.8 49.6 1.6 -11.3642
486 2 8 49.6 1.6 -9.88035
488 4 11.2 49.6 1.6 -13.3553
490 2 14.4 49.6 1.6 -9.80728
492 2 17.6 49.6 1.6 -9.86297
494 2 20.8 49.6 1.6 -9.88065
496 2 24 49.6 1.6 -9.94507
498 4 27.2 49.6 1.6 -13.3918
500 2 30.4 49.6 1.6 -9.78409
502 3 33.6 49.6 1.6 -11.1651
504 3 36.8 49.6 1.6 -11.2045
506 3 40 49.6 1.6 -11.3089
508 3 43.2 49.6 1.6 -11.3086
510 3 46.4 49.6 1.6 -11.2753
512 3 49.6 49.6 1.6 -11.338
513 4 0 0 3.2 -13.3598
514 3 1.6 1.6 4.8 -11.2733
515 1 3.2 0 3.2 -11.8539
516 3 4.8 1.6 4.8 -11.3606
517 2 6.4 0 3.2 -9.88129
518 2 8 1.6 4.8 -9.92827
519 2 9.6 0 3.2 -9.88502
520 2 11.2 1.6 4.8 -9.95198
521 1 12.8 0 3.2 -11.7665
522 2 14.4 1.6 4.8 -9.78292
523 1 16 0 3.2 -11.6859
524 3 17.6 1.6 4.8 -11.2401
525 1 19.2 0 3.2 -11.807
526 3 20.8 1.6 4.8 -11.2007
527 1 22.4 0 3.2 -11.7912
528 3 24 1.6 4.8 -11.2772
529 1 25.6 0 3.2 -11.8385
530 3 27.2 1.6 4.8 -11.271
531 2 28.8 0 3.2 -9.76599
532 2 30.4 1.6 4.8 -9.87229
533 1 32 0 3.2 -11.8139
534 3 33.6 1.6 4.8 -11.2627
535 1 35.2 0 3.2 -11.8275
536 2 36.8 1.6 4.8 -9.83249
537 1 38.4 0 3.2 -11.8675
538 3 40 1.6 4.8 -11.3049
539 4 41.6 0 3.2 -13.3634
540 3 43.2 1.6 4.8 -11.2756
541 1 44.8 0 3.2 -11.8556
542 3 46.4 1.6 4.8 -11.2756
543 1 48 0 3.2 -11.8841
544 3 49.6 1.6 4.8 -11.3061
545 1 0 3.2 3.2 -11.8577
546 3 1.6 4.8 4.8 -11.3257
547 1 3.2 3.2 3.2 -11.8251
548 2 4.8 4.8 4.8 -9.93363
549 2 6.4 3.2 3.2 -9.91667
550 4 8 4.8 4.8 -13.307
551 2 9.6 3.2 3.2 -9.85858
552 3 11.2 4.8 4.8 -11.3382
553 2 12.8 3.2 3.2 -9.8677
554 2 14.4 4.8 4.8 -9.94633
555 1 16 3.2 3.2 -11.7762
556 3 17.6 4.8 4.8 -11.3557
557 4 19.2 3.2 3.2 -13.3807
558 3 20.8 4.8 4.8 -11.3644
559 1 22.4 3.2 3.2 -11.8344
560 3 24 4.8 4.8 -11.2701
561 1 25.6 3.2 3.2 -11.8412
562 3 27.2 4.8 4.8 -11.309
563 1 28.8 3.2 3.2 -11.8415
564 3 30.4 4.8 4.8 -11.3583
565 1 32 3.2 3.2 -11.8392
566 3 33.6 4.8 4.8 -11.3893
567 1 35.2 3.2 3.2 -11.8124
568 3 36.8 4.8 4.8 -11.2631
569 1 38.4 3.2 3.2 -11.7993
570 3 40 4.8 4.8 -11.2767
571 1 41.6 3.2 3.2 -11.8555
572 3 43.2 4.8 4.8 -11.2414
573 1 44.8 3.2 3.2 -11.8416
574 3 46.4 4.8 4.8 -11.2036
575 1 48 3.2 3.2 -11.8116
576 2 49.6 4.8 4.8 -9.83192
577 4 0 6.4 3.2 -13.3534
578 2 1.6 8 4.8 -9.89735
579 4 3.2 6.4 3.2 -13.423
580 2 4.8 8 4.8 -9.90385
581 2 6.4 6.4 3.2 -9.92788
582 2 8 8 4.8 -9.89342
583 2 9.6 6.4 3.2 -9.85958
584 2 11.2 8 4.8 -9.94208
585 2 12.8 6.4 3.2 -9.92045
586 2 14.4 8 4.8 -9.90475
587 2 16 6.4 3.2 -9.93278
588 2 17.6 8 4.8 -9.95461
589 2 19.2 6.4 3.2 -9.92434
590 3 20.8 8 4.8 -11.3753
591 2 22.4 6.4 3.2 -9.84342
592 3 24 8 4.8 -11.3335
593 1 25.6 6.4 3.2 -11.8411
594 3 27.2 8 4.8 -11.3349
595 1 28.8 6.4 3.2 -11.8675
596 3 30.4 8 4.8 -11.3531
597 1 32 6.4 3.2 -11.8406
598 2 33.6 8 4.8 -9.93429
599 2 35.2 6.4 3.2 -9.88087
600 2 36.8 8 4.8 -9.9317
601 4 38.4 6.4 3.2 -13.335
602 3 40 8 4.8 -11.1615
603 1 41.6 6.4 3.2 -11.8575
604 3 43.2 8 4.8 -11.2405
605 1 44.8 6.4 3.2 -11.8412
606 3 46.4 8 4.8 -11.3019
607 1 48 6.4 3.2 -11.8136
608 2 49.6 8 4.8 -9.84708
609 1 0 9.6 3.2 -11.8611
610 3 1.6 11.2 4.8 -11.3286
611 2 3.2 9.6 3.2 -9.86036
612 4 4.8 11.2 4.8 -13.4273
613 2 6.4 9.6 3.2 -9.93773
614 2 8 11.2 4.8 -9.94937
615 4 9.6 9.6 3.2 -13.469
616 2 11.2 11.2 4.8 -9.92328
617 2 12.8 9.6 3.2 -9.89741
618 2 14.4 11.2 4.8 -9.89998
619 3 16 9.6 3.2 -11.408
620 4 17.6 11.2 4.8 -13.4709
621 2 19.2 9.6 3.2 -9.88988
622 2 20.8 11.2 4.8 -9.89484
623 1 22.4 9.6 3.2 -11.8201
624 2 24 11.2 4.8 -9.86343
625 1 25.6 9.6 3.2 -11.82
626 2 27.2 11.2 4.8 -9.90713
627 1 28.8 9.6 3.2 -11.7903
628 2 30.4 11.2 4.8 -9.89218
629 1 32 9.6 3.2 -11.7832
630 2 33.6 11.2 4.8 -9.92466
631 2 35.2 9.6 3.2 -9.89395
632 3 36.8 11.2 4.8 -11.385
633 1 38.4 9.6 3.2 -11.7969
634 2 40 11.2 4.8 -9.81233
635 1 41.6 9.6 3.2 -11.7621
636 2 43.2 11.2 4.8 -9.83759
637 1 44.8 9.6 3.2 -11.8066
638 2 46.4 11.2 4.8 -9.90712
639 4 48 9.6 3.2 -13.3537
640 2 49.6 11.2 4.8 -9.93341
641 2 0 12.8 3.2 -9.87648
642 2 1.6 14.4 4.8 -9.92005
643 2 3.2 12.8 3.2 -9.92538
644 2 4.8 14.4 4.8 -9.86583
645 2 6.4 12.8 3.2 -9.90181
646 4 8 14.4 4.8 -13.4198
647 3 9.6 12.8 3.2 -11.3986
648 2 11.2 14.4 4.8 -9.84392
649 2 12.8 12.8 3.2 -9.89497
650 2 14.4 14.4 4.8 -9.86382
651 4 16 12.8 3.2 -13.4236
652 2 17.6 14.4 4.8 -9.88287
653 2 19.2 12.8 3.2 -9.91502
654 1 20.8 14.4 4.8 -11.8234
655 2 22.4 12.8 3.2 -9.7548
656 1 24 14.4 4.8 -11.7348
657 2 25.6 12.8 3.2 -9.85929
658 2 27.2 14.4 4.8 -9.89924
659 2 28.8 12.8 3.2 -9.88314
660 2 30.4 14.4 4.8 -9.85635
661 2 32 12.8 3.2 -9.8556
662 1 33.6 14.4 4.8 -11.7466
663 2 35.2 12.8 3.2 -9.93355
664 4 36.8 14.4 4.8 -13.3182
665 2 38.4 12.8 3.2 -9.91574
666 1 40 14.4 4.8 -11.7971
667 2 41.6 12.8 3.2 -9.88666
668 4 43.2 14.4 4.8 -13.3454
669 2 44.8 12.8 3.2 -9.86533
670 4 46.4 14.4 4.8 -13.3454
671 2 48 12.8 3.2 -9.8821
672 1 49.6 14.4 4.8 -11.811
673 3 0 16 3.2 -11.2847
674 2 1.6 17.6 4.8 -9.95441
675 2 3.2 16 3.2 -9.89998
676 2 4.8 17.6 4.8 -9.94484
677 4 6.4 16 3.2 -13.2771
678 2 8 17.6 4.8 -9.85412
679 2 9.6 16 3.2 -9.86996
680 4 11.2 17.6 4.8 -13.329
681 2 12.8 16 3.2 -9.81324
682 1 14.4 17.6 4.8 -11.7522
683 2 16 16 3.2 -9.83459
684 1 17.6 17.6 4.8 -11.8103
685 3 19.2 16 3.2 -11.2862
686 2 20.8 17.6 4.8 -9.85254
687 2 22.4 16 3.2 -9.78678
688 2 24 17.6 4.8 -9.86975
689 2 25.6 16 3.2 -9.87833
690 2 27.2 17.6 4.8 -9.941
691 2 28.8 16 3.2 -9.8939
692 4 30.4 17.6 4.8 -13.3563
693 2 32 16 3.2 -9.88789
694 1 33.6 17.6 4.8 -11.7579
695 3 35.2 16 3.2 -11.1887
696 1 36.8 17.6 4.8 -11.7448
697 3 38.4 16 3.2 -11.3019
698 1 40 17.6 4.8 -11.7577
699 3 41.6 16 3.2 -11.3321
700 1 43.2 17.6 4.8 -11.7756
701 3 44.8 16 3.2 -11.2977
702 4 46.4 17.6 4.8 -13.3747
703 3 48 16 3.2 -11.2681
704 2 49.6 17.6 4.8 -9.87368
705 4 0 19.2 3.2 -13.3768
706 2 1.6 20.8 4.8 -9.85315
707 2 3.2 19.2 3.2 -9.87316
708 2 4.8 20.8 4.8 -9.92342
709 2 6.4 19.2 3.2 -9.85906
710 4 8 20.8 4.8 -13.3642
711 2 9.6 19.2 3.2 -9.89022
712 2 11.2 20.8 4.8 -9.90736
713 2 12.8 19.2 3.2 -9.83778
714 4 14.4 20.8 4.8 -13.3752
715 3 16 19.2 3.2 -11.1885
716 1 17.6 20.8 4.8 -11.7953
717 2 19.2 19.2 3.2 -9.84399
718 2 20.8 20.8 4.8 -9.87732
719 1 22.4 19.2 3.2 -11.7644
720 2 24 20.8 4.8 -9.9053
721 2 25.6 19.2 3.2 -9.91564
722 2 27.2 20.8 4.8 -9.9188
723 2 28.8 19.2 3.2 -9.91223
724 1 30.4 20.8 4.8 -11.8336
725 3 32 19.2 3.2 -11.2604
726 1 33.6 20.8 4.8 -11.8215
727 2 35.2 19.2 3.2 -9.80136
728 1 36.8 20.8 4.8 -11.7654
729 3 38.4 19.2 3.2 -11.1648
730 1 40 20.8 4.8 -11.7746
731 3 41.6 19.2 3.2 -11.2384
732 4 43.2 20.8 4.8 -13.375
733 2 44.8 19.2 3.2 -9.8683
734 2 46.4 20.8 4.8 -9.85087
735 2 48 19.2 3.2 -9.8891
736 2 49.6 20.8 4.8 -9.9569
737 2 0 22.4 3.2 -9.84748
738 1 1.6 24 4.8 -11.7924
739 2 3.2 22.4 3.2 -9.83795
740 2 4.8 24 4.8 -9.83766
741 4 6.4 22.4 3.2 -13.3754
742 2 8 24 4.8 -9.86593
743 2 9.6 22.4 3.2 -9.9116
744 2 11.2 24 4.8 -9.95158
745 2 12.8 22.4 3.2 -9.97717
746 2 14.4 24 4.8 -9.9298
747 2 16 22.4 3.2 -9.88469
748 2 17.6 24 4.8 -9.86596
749 2 19.2 22.4 3.2 -9.90259
750 2 20.8 24 4.8 -9.86398
751 4 22.4 22.4 3.2 -13.3623
752 2 24 24 4.8 -9.90531
753 2 25.6 22.4 3.2 -9.91279
754 2 27.2 24 4.8 -9.90584
755 3 28.8 22.4 3.2 -11.3147
756 4 30.4 24 4.8 -13.4199
757 3 32 22.4 3.2 -11.3916
758 4 33.6 24 4.8 -13.4431
759 3 35.2 22.4 3.2 -11.3859
760 2 36.8 24 4.8 -9.8333
761 3 38.4 22.4 3.2 -11.2397
762 1 40 24 4.8 -11.7827
763 3 41.6 22.4 3.2 -11.2641
764 2 43.2 24 4.8 -9.88547
765 3 44.8 22.4 3.2 -11.3488
766 4 46.4 24 4.8 -13.3406
767 2 48 22.4 3.2 -9.90944
768 2 49.6 24 4.8 -9.82904
769 2 0 25.6 3.2 -9.86563
771 2 3.2 25.6 3.2 -9.88904
773 1 6.4 25.6 3.2 -11.8026
775 2 9.6 25.6 3.2 -9.87453
777 2 12.8 25.6 3.2 -9.88295
779 1 16 25.6 3.2 -11.7822
781 2 19.2 25.6 3.2 -9.85135
783 2 22.4 25.6 3.2 -9.89341
785 2 25.6 25.6 3.2 -9.94097
787 2 28.8 25.6 3.2 -9.91577
789 3 32 25.6 3.2 -11.2981
791 2 35.2 25.6 3.2 -9.91552
793 2 38.4 25.6 3.2 -9.86546
795 2 41.6 25.6 3.2 -9.90694
797 2 44.8 25.6 3.2 -9.9095
799 2 48 25.6 3.2 -9.8141
770 2 1.6 27.2 4.8 -9.88902
801 1 0 28.8 3.2 -11.842
772 2 4.8 27.2 4.8 -9.86154
803 2 3.2 28.8 3.2 -9.84046
774 3 8 27.2 4.8 -11.2201
805 1 6.4 28.8 3.2 -11.8941
776 2 11.2 27.2 4.8 -9.92619
807 2 9.6 28.8 3.2 -9.88129
778 2 14.4 27.2 4.8 -9.88177
809 2 12.8 28.8 3.2 -9.92643
780 2 17.6 27.2 4.8 -9.84397
811 2 16 28.8 3.2 -9.8158
782 2 20.8 27.2 4.8 -9.85928
813 2 19.2 28.8 3.2 -9.90913
784 2 24 27.2 4.8 -9.86976
815 2 22.4 28.8 3.2 -9.88932
817 2 25.6 28.8 3.2 -9.88822
786 1 27.2 27.2 4.8 -11.8256
819 3 28.8 28.8 3.2 -11.2343
788 1 30.4 27.2 4.8 -11.8568
821 3 32 28.8 3.2 -11.2767
790 1 33.6 27.2 4.8 -11.8567
823 3 35.2 28.8 3.2 -11.3035
792 2 36.8 27.2 4.8 -9.88048
825 3 38.4 28.8 3.2 -11.3923
794 2 40 27.2 4.8 -9.91469
827 2 41.6 28.8 3.2 -9.93427
796 2 43.2 27.2 4.8 -9.9183
829 2 44.8 28.8 3.2 -9.81254
798 2 46.4 27.2 4.8 -9.78744
831 2 48 28.8 3.2 -9.83986
800 2 49.6 27.2 4.8 -9.87064
802 3 1.6 30.4 4.8 -11.3537
833 2 0 32 3.2 -9.89631
804 3 4.8 30.4 4.8 -11.3075
835 1 3.2 32 3.2 -11.9036
806 3 8 30.4 4.8 -11.3297
837 4 6.4 32 3.2 -13.3996
808 2 11.2 30.4 4.8 -9.89546
839 2 9.6 32 3.2 -9.93534
810 1 14.4 30.4 4.8 -11.7604
841 3 12.8 32 3.2 -11.3587
812 2 17.6 30.4 4.8 -9.8722
843 2 16 32 3.2 -9.89294
814 4 20.8 30.4 4.8 -13.307
845 2 19.2 32 3.2 -9.83866
816 1 24 30.4 4.8 -11.7941
847 2 22.4 32 3.2 -9.81212
849 3 25.6 32 3.2 -11.2991
818 1 27.2 30.4 4.8 -11.8114
851 3 28.8 32 3.2 -11.2042
820 1 30.4 30.4 4.8 -11.8677
853 3 32 32 3.2 -11.2381
822 1 33.6 30.4 4.8 -11.8687
855 3 35.2 32 3.2 -11.3294
824 4 36.8 30.4 4.8 -13.4916
857 2 38.4 32 3.2 -9.91693
826 2 40 30.4 4.8 -9.95427
859 1 41.6 32 3.2 -11.7647
828 4 43.2 30.4 4.8 -13.3173
861 1 44.8 32 3.2 -11.7696
830 2 46.4 30.4 4.8 -9.84375
863 2 48 32 3.2 -9.86854
832 2 49.6 30.4 4.8 -9.90795
834 2 1.6 33.6 4.8 -9.89199
865 1 0 35.2 3.2 -11.8178
836 3 4.8 33.6 4.8 -11.2917
867 1 3.2 35.2 3.2 -11.8015
838 2 8 33.6 4.8 -9.93401
869 4 6.4 35.2 3.2 -13.4029
840 2 11.2 33.6 4.8 -9.89472
871 2 9.6 35.2 3.2 -9.91622
842 4 14.4 33.6 4.8 -13.3397
873 2 12.8 35.2 3.2 -9.90795
844 1 17.6 33.6 4.8 -11.7803
875 3 16 35.2 3.2 -11.3149
846 1 20.8 33.6 4.8 -11.715
877 3 19.2 35.2 3.2 -11.2011
848 1 24 33.6 4.8 -11.8048
879 3 22.4 35.2 3.2 -11.2958
881 3 25.6 35.2 3.2 -11.3926
850 1 27.2 33.6 4.8 -11.8551
883 3 28.8 35.2 3.2 -11.2402
852 1 30.4 33.6 4.8 -11.8689
885 3 32 35.2 3.2 -11.3054
854 4 33.6 33.6 4.8 -13.4739
887 2 35.2 35.2 3.2 -9.8599
856 3 36.8 33.6 4.8 -11.3925
889 2 38.4 35.2 3.2 -9.86879
858 3 40 33.6 4.8 -11.3987
891 1 41.6 35.2 3.2 -11.8055
860 3 43.2 33.6 4.8 -11.2299
893 1 44.8 35.2 3.2 -11.8005
862 3 46.4 33.6 4.8 -11.3877
895 1 48 35.2 3.2 -11.8683
864 2 49.6 33.6 4.8 -9.95013
866 2 1.6 36.8 4.8 -9.78122
897 1 0 38.4 3.2 -11.812
868 2 4.8 36.8 4.8 -9.83643
899 1 3.2 38.4 3.2 -11.7938
870 2 8 36.8 4.8 -9.88846
901 1 6.4 38.4 3.2 -11.7901
872 4 11.2 36.8 4.8 -13.3959
903 2 9.6 38.4 3.2 -9.87597
874 4 14.4 36.8 4.8 -13.338
905 2 12.8 38.4 3.2 -9.9264
876 1 17.6 36.8 4.8 -11.7726
907 2 16 38.4 3.2 -9.85051
878 1 20.8 36.8 4.8 -11.8664
909 3 19.2 38.4 3.2 -11.2966
880 2 24 36.8 4.8 -9.86661
911 3 22.4 38.4 3.2 -11.4388
913 2 25.6 38.4 3.2 -9.95612
882 4 27.2 36.8 4.8 -13.4
915 2 28.8 38.4 3.2 -9.86383
884 1 30.4 36.8 4.8 -11.8446
917 3 32 38.4 3.2 -11.2567
886 2 33.6 36.8 4.8 -9.84845
919 2 35.2 38.4 3.2 -9.84516
888 4 36.8 36.8 4.8 -13.417
921 2 38.4 38.4 3.2 -9.908
890 2 40 36.8 4.8 -9.92303
923 4 41.6 38.4 3.2 -13.3498
892 3 43.2 36.8 4.8 -11.2352
925 1 44.8 38.4 3.2 -11.7976
894 3 46.4 36.8 4.8 -11.301
927 1 48 38.4 3.2 -11.8257
896 3 49.6 36.8 4.8 -11.2962
898 3 1.6 40 4.8 -11.1991
929 1 0 41.6 3.2 -11.8558
900 3 4.8 40 4.8 -11.2696
931 4 3.2 41.6 3.2 -13.3634
902 2 8 40 4.8 -9.89215
933 1 6.4 41.6 3.2 -11.8463
904 3 11.2 40 4.8 -11.3757
935 2 9.6 41.6 3.2 -9.87809
906 2 14.4 40 4.8 -9.8684
937 2 12.8 41.6 3.2 -9.84932
908 1 17.6 40 4.8 -11.7977
939 2 16 41.6 3.2 -9.85061
910 4 20.8 40 4.8 -13.3879
941 2 19.2 41.6 3.2 -9.90623
912 4 24 40 4.8 -13.4698
943 2 22.4 41.6 3.2 -9.91504
945 2 25.6 41.6 3.2 -9.92624
914 2 27.2 40 4.8 -9.91759
947 2 28.8 41.6 3.2 -9.92499
916 4 30.4 40 4.8 -13.3637
949 2 32 41.6 3.2 -9.89483
918 4 33.6 40 4.8 -13.3721
951 3 35.2 41.6 3.2 -11.2896
920 4 36.8 40 4.8 -13.3735
953 2 38.4 41.6 3.2 -9.86339
922 2 40 40 4.8 -9.87148
955 1 41.6 41.6 3.2 -11.7794
924 2 43.2 40 4.8 -9.86869
957 1 44.8 41.6 3.2 -11.8553
926 3 46.4 40 4.8 -11.3073
959 1 48 41.6 3.2 -11.8412
928 3 49.6 40 4.8 -11.24
930 3 1.6 43.2 4.8 -11.2759
961 1 0 44.8 3.2 -11.8414
932 3 4.8 43.2 4.8 -11.3362
963 1 3.2 44.8 3.2 -11.8693
934 3 8 43.2 4.8 -11.3426
965 1 6.4 44.8 3.2 -11.8444
936 2 11.2 43.2 4.8 -9.92298
967 4 9.6 44.8 3.2 -13.3141
938 2 14.4 43.2 4.8 -9.9048
969 2 12.8 44.8 3.2 -9.90963
940 4 17.6 43.2 4.8 -13.3358
971 2 16 44.8 3.2 -9.88411
942 4 20.8 43.2 4.8 -13.3655
973 2 19.2 44.8 3.2 -9.91889
944 2 24 43.2 4.8 -9.82731
975 2 22.4 44.8 3.2 -9.88757
977 2 25.6 44.8 3.2 -9.89001
946 2 27.2 43.2 4.8 -9.86446
979 2 28.8 44.8 3.2 -9.9292
948 1 30.4 43.2 4.8 -11.8015
981 2 32 44.8 3.2 -9.85833
950 4 33.6 43.2 4.8 -13.3132
983 2 35.2 44.8 3.2 -9.8636
952 1 36.8 43.2 4.8 -11.7953
985 2 38.4 44.8 3.2 -9.84145
954 2 40 43.2 4.8 -9.88895
987 1 41.6 44.8 3.2 -11.8273
956 3 43.2 43.2 4.8 -11.2965
989 4 44.8 44.8 3.2 -13.3639
958 3 46.4 43.2 4.8 -11.341
991 1 48 44.8 3.2 -11.8698
960 3 49.6 43.2 4.8 -11.2417
962 3 1.6 46.4 4.8 -11.2417
993 1 0 48 3.2 -11.8557
964 3 4.8 46.4 4.8 -11.3067
995 1 3.2 48 3.2 -11.8676
966 2 8 46.4 4.8 -9.91615
997 2 6.4 48 3.2 -9.85539
968 4 11.2 46.4 4.8 -13.367
999 2 9.6 48 3.2 -9.92666
970 2 14.4 46.4 4.8 -9.93416
1001 3 12.8 48 3.2 -11.2484
972 2 17.6 46.4 4.8 -9.92863
1003 1 16 48 3.2 -11.8176
974 2 20.8 46.4 4.8 -9.91431
1005 2 19.2 48 3.2 -9.89708
976 4 24 46.4 4.8 -13.4073
1007 2 22.4 48 3.2 -9.95059
1009 3 25.6 48 3.2 -11.3702
978 2 27.2 46.4 4.8 -9.91009
1011 2 28.8 48 3.2 -9.93275
980 2 30.4 46.4 4.8 -9.8986
1013 1 32 48 3.2 -11.7898
982 2 33.6 46.4 4.8 -9.86306
1015 1 35.2 48 3.2 -11.7886
984 2 36.8 46.4 4.8 -9.86672
1017 1 38.4 48 3.2 -11.8128
986 3 40 46.4 4.8 -11.3021
1019 1 41.6 48 3.2 -11.8695
988 3 43.2 46.4 4.8 -11.2761
1021 1 44.8 48 3.2 -11.8556
990 3 46.4 46.4 4.8 -11.2376
1023 1 48 48 3.2 -11.8412
992 3 49.6 46.4 4.8 -11.2417
994 3 1.6 49.6 4.8 -11.2756
996 3 4.8 49.6 4.8 -11.3342
998 2 8 49.6 4.8 -9.94277
1000 2 11.2 49.6 4.8 -9.89192
1002 2 14.4 49.6 4.8 -9.84402
1004 3 17.6 49.6 4.8 -11.2552
1006 2 20.8 49.6 4.8 -9.88062
1008 3 24 49.6 4.8 -11.3097
1010 2 27.2 49.6 4.8 -9.94702
1012 3 30.4 49.6 4.8 -11.3691
1014 3 33.6 49.6 4.8 -11.3877
1016 3 36.8 49.6 4.8 -11.3308
1018 3 40 49.6 4.8 -11.3713
1020 3 43.2 49.6 4.8 -11.2753
1022 3 46.4 49.6 4.8 -11.2756
1024 3 49.6 49.6 4.8 -11.3086
1025 1 0 0 6.4 -11.8837
1026 3 1.6 1.6 8 -11.2381
1027 1 3.2 0 6.4 -11.8408
1028 3 4.8 1.6 8 -11.3617
1029 1 6.4 0 6.4 -11.864
1030 2 8 1.6 8 -9.86113
1031 3 9.6 0 6.4 -11.3303
1032 2 11.2 1.6 8 -9.9149
1033 2 12.8 0 6.4 -9.86697
1034 2 14.4 1.6 8 -9.85557
1035 1 16 0 6.4 -11.7629
1036 3 17.6 1.6 8 -11.1999
1037 1 19.2 0 6.4 -11.7868
1038 3 20.8 1.6 8 -11.2342
1039 1 22.4 0 6.4 -11.8036
1040 3 24 1.6 8 -11.2702
1041 1 25.6 0 6.4 -11.8304
1042 3 27.2 1.6 8 -11.3037
1043 1 28.8 0 6.4 -11.8344
1044 2 30.4 1.6 8 -9.90631
1045 2 32 0 6.4 -9.88339
1046 4 33.6 1.6 8 -13.3295
1047 4 35.2 0 6.4 -13.4204
1048 2 36.8 1.6 8 -9.80259
1049 3 38.4 0 6.4 -11.2891
1050 2 40 1.6 8 -9.82985
1051 1 41.6 0 6.4 -11.8673
1052 3 43.2 1.6 8 -11.2039
1053 1 44.8 0 6.4 -11.8557
1054 3 46.4 1.6 8 -11.2378
1055 4 48 0 6.4 -13.3645
1056 3 49.6 1.6 8 -11.3096
1057 4 0 3.2 6.4 -13.3809
1058 3 1.6 4.8 8 -11.3287
1059 1 3.2 3.2 6.4 -11.8709
1060 3 4.8 4.8 8 -11.3158
1061 2 6.4 3.2 6.4 -9.82475
1062 1 8 4.8 8 -11.7236
1063 1 9.6 3.2 6.4 -11.7567
1064 2 11.2 4.8 8 -9.91012
1065 2 12.8 3.2 6.4 -9.90017
1066 2 14.4 4.8 8 -9.88581
1067 1 16 3.2 6.4 -11.7881
1068 3 17.6 4.8 8 -11.3612
1069 1 19.2 3.2 6.4 -11.8697
1070 3 20.8 4.8 8 -11.2975
1071 1 22.4 3.2 6.4 -11.8432
1072 2 24 4.8 8 -9.84283
1073 4 25.6 3.2 6.4 -13.308
1074 2 27.2 4.8 8 -9.89235
1075 1 28.8 3.2 6.4 -11.8344
1076 2 30.4 4.8 8 -9.93562
1077 2 32 3.2 6.4 -9.86279
1078 2 33.6 4.8 8 -9.84204
1079 1 35.2 3.2 6.4 -11.7535
1080 3 36.8 4.8 8 -11.2686
1081 1 38.4 3.2 6.4 -11.8032
1082 3 40 4.8 8 -11.2665
1083 1 41.6 3.2 6.4 -11.8119
1084 3 43.2 4.8 8 -11.2764
1085 1 44.8 3.2 6.4 -11.8416
1086 3 46.4 4.8 8 -11.2045
1087 1 48 3.2 6.4 -11.8416
1088 3 49.6 4.8 8 -11.2635
1089 2 0 6.4 6.4 -9.84572
1090 2 1.6 8 8 -9.74995
1091 4 3.2 6.4 6.4 -13.3384
1092 2 4.8 8 8 -9.81276
1093 2 6.4 6.4 6.4 -9.87999
1094 1 8 8 8 -11.8089
1095 2 9.6 6.4 6.4 -9.87358
1096 2 11.2 8 8 -9.8722
1097 2 12.8 6.4 6.4 -9.92604
1098 1 14.4 8 8 -11.7554
1099 2 16 6.4 6.4 -9.87995
1100 2 17.6 8 8 -9.89074
1101 1 19.2 6.4 6.4 -11.86
1102 2 20.8 8 8 -9.91206
1103 1 22.4 6.4 6.4 -11.8275