ITEM: TIMESTEP
0
ITEM: NUMBER OF ATOMS
8192
ITEM: BOX BOUNDS pp pp pp
0.0000000000000000e+00 5.1200000000000003e+01
0.0000000000000000e+00 5.1200000000000003e+01
0.0000000000000000e+00 5.1200000000000003e+01
ITEM: ATOMS id type x y z c_eng
1 1 0 0 0 -11.8977
2 3 1.6 1.6 1.6 -11.3001
3 4 3.2 0 0 -13.4047
4 2 4.8 1.6 1.6 -9.88604
5 2 6.4 0 0 -9.90791
6 2 8 1.6 1.6 -9.92092
7 3 9.6 0 0 -11.3864
8 1 11.2 1.6 1.6 -11.7939
9 2 12.8 0 0 -9.86238
10 2 14.4 1.6 1.6 -9.85433
11 2 16 0 0 -9.88537
12 2 17.6 1.6 1.6 -9.88786
13 2 19.2 0 0 -9.86601
14 2 20.8 1.6 1.6 -9.90237
15 2 22.4 0 0 -9.90493
16 2 24 1.6 1.6 -9.94385
17 4 25.6 0 0 -13.3933
18 2 27.2 1.6 1.6 -9.91865
19 2 28.8 0 0 -9.8478
20 3 30.4 1.6 1.6 -11.2638
21 1 32 0 0 -11.8549
22 3 33.6 1.6 1.6 -11.2426
23 1 35.2 0 0 -11.8414
24 3 36.8 1.6 1.6 -11.2753
25 1 38.4 0 0 -11.8556
26 3 40 1.6 1.6 -11.2756
27 1 41.6 0 0 -11.8555
28 3 43.2 1.6 1.6 -11.2753
29 1 44.8 0 0 -11.8836
30 3 46.4 1.6 1.6 -11.3086
31 4 48 0 0 -13.3634
32 3 49.6 1.6 1.6 -11.3089
33 4 0 3.2 0 -13.3798
34 2 1.6 4.8 1.6 -9.86206
35 2 3.2 3.2 0 -9.89256
36 2 4.8 4.8 1.6 -9.9229
37 2 6.4 3.2 0 -9.94337
38 2 8 4.8 1.6 -9.88539
39 3 9.6 3.2 0 -11.2502
40 1 11.2 4.8 1.6 -11.7172
41 2 12.8 3.2 0 -9.78371
42 2 14.4 4.8 1.6 -9.88758
43 2 16 3.2 0 -9.85851
44 2 17.6 4.8 1.6 -9.81525
45 2 19.2 3.2 0 -9.86947
46 3 20.8 4.8 1.6 -11.2624
47 2 22.4 3.2 0 -9.90719
48 2 24 4.8 1.6 -9.85984
49 2 25.6 3.2 0 -9.87607
50 3 27.2 4.8 1.6 -11.2263
51 1 28.8 3.2 0 -11.7884
52 2 30.4 4.8 1.6 -9.74922
53 1 32 3.2 0 -11.8188
54 3 33.6 4.8 1.6 -11.2381
55 1 35.2 3.2 0 -11.8251
56 3 36.8 4.8 1.6 -11.3663
57 4 38.4 3.2 0 -13.4218
58 3 40 4.8 1.6 -11.3861
59 1 41.6 3.2 0 -11.8836
60 3 43.2 4.8 1.6 -11.3357
61 4 44.8 3.2 0 -13.3639
62 3 46.4 4.8 1.6 -11.2756
63 1 48 3.2 0 -11.8842
64 3 49.6 4.8 1.6 -11.2397
65 1 0 6.4 0 -11.8156
66 2 1.6 8 1.6 -9.84215
67 2 3.2 6.4 0 -9.89437
68 2 4.8 8 1.6 -9.94093
69 2 6.4 6.4 0 -9.94097
70 2 8 8 1.6 -9.89496
71 2 9.6 6.4 0 -9.84343
72 1 11.2 8 1.6 -11.6935
73 2 12.8 6.4 0 -9.81354
74 2 14.4 8 1.6 -9.84712
75 1 16 6.4 0 -11.7577
76 2 17.6 8 1.6 -9.81343
77 1 19.2 6.4 0 -11.7351
78 3 20.8 8 1.6 -11.2911
79 1 22.4 6.4 0 -11.7631
80 3 24 8 1.6 -11.2651
81 1 25.6 6.4 0 -11.7928
82 3 27.2 8 1.6 -11.2688
83 1 28.8 6.4 0 -11.7512
84 2 30.4 8 1.6 -9.83348
85 2 32 6.4 0 -9.82149
86 3 33.6 8 1.6 -11.3299
87 1 35.2 6.4 0 -11.8878
88 3 36.8 8 1.6 -11.3264
89 2 38.4 6.4 0 -9.88508
90 2 40 8 1.6 -9.97468
91 4 41.6 6.4 0 -13.4237
92 2 43.2 8 1.6 -9.93311
93 1 44.8 6.4 0 -11.8446
94 3 46.4 8 1.6 -11.2712
95 1 48 6.4 0 -11.8412
96 3 49.6 8 1.6 -11.2394
97 1 0 9.6 0 -11.7149
98 2 1.6 11.2 1.6 -9.78241
99 1 3.2 9.6 0 -11.7435
100 2 4.8 11.2 1.6 -9.92065
101 2 6.4 9.6 0 -9.90925
102 2 8 11.2 1.6 -9.92523
103 4 9.6 9.6 0 -13.3376
104 2 11.2 11.2 1.6 -9.83743
105 2 12.8 9.6 0 -9.86637
106 2 14.4 11.2 1.6 -9.78036
107 2 16 9.6 0 -9.8397
108 2 17.6 11.2 1.6 -9.8551
109 2 19.2 9.6 0 -9.92216
110 3 20.8 11.2 1.6 -11.3274
111 2 22.4 9.6 0 -9.88509
112 2 24 11.2 1.6 -9.86774
113 2 25.6 9.6 0 -9.86791
114 3 27.2 11.2 1.6 -11.4385
115 4 28.8 9.6 0 -13.3355
116 3 30.4 11.2 1.6 -11.3754
117 2 32 9.6 0 -9.86345
118 2 33.6 11.2 1.6 -9.9083
119 4 35.2 9.6 0 -13.4079
120 2 36.8 11.2 1.6 -9.88595
121 2 38.4 9.6 0 -9.87756
122 2 40 11.2 1.6 -9.89923
123 2 41.6 9.6 0 -9.94945
124 2 43.2 11.2 1.6 -9.9157
125 2 44.8 9.6 0 -9.86314
126 2 46.4 11.2 1.6 -9.8859
127 1 48 9.6 0 -11.7886
128 2 49.6 11.2 1.6 -9.8175
129 4 0 12.8 0 -13.2268
130 1 1.6 14.4 1.6 -11.7471
131 2 3.2 12.8 0 -9.83241
132 2 4.8 14.4 1.6 -9.91574
133 2 6.4 12.8 0 -9.94098
134 2 8 14.4 1.6 -9.87812
135 2 9.6 12.8 0 -9.86633
136 2 11.2 14.4 1.6 -9.923
137 2 12.8 12.8 0 -9.87175
138 2 14.4 14.4 1.6 -9.80694
139 1 16 12.8 0 -11.7846
140 2 17.6 14.4 1.6 -9.83505
141 2 19.2 12.8 0 -9.87594
142 4 20.8 14.4 1.6 -13.3484
143 2 22.4 12.8 0 -9.78331
144 2 24 14.4 1.6 -9.86407
145 2 25.6 12.8 0 -9.90105
146 3 27.2 14.4 1.6 -11.3101
147 4 28.8 12.8 0 -13.4137
148 2 30.4 14.4 1.6 -9.90638
149 2 32 12.8 0 -9.94769
150 2 33.6 14.4 1.6 -9.87434
151 2 35.2 12.8 0 -9.90672
152 4 36.8 14.4 1.6 -13.3699
153 2 38.4 12.8 0 -9.8851
154 1 40 14.4 1.6 -11.8159
155 2 41.6 12.8 0 -9.83079
156 1 43.2 14.4 1.6 -11.7459
157 2 44.8 12.8 0 -9.8811
158 4 46.4 14.4 1.6 -13.3173
159 2 48 12.8 0 -9.83278
160 1 49.6 14.4 1.6 -11.8058
161 3 0 16 0 -11.2953
162 2 1.6 17.6 1.6 -9.84553
163 2 3.2 16 0 -9.86939
164 2 4.8 17.6 1.6 -9.85878
165 2 6.4 16 0 -9.81059
166 4 8 17.6 1.6 -13.3679
167 2 9.6 16 0 -9.85925
168 2 11.2 17.6 1.6 -9.89669
169 2 12.8 16 0 -9.89509
170 2 14.4 17.6 1.6 -9.89111
171 2 16 16 0 -9.86141
172 2 17.6 17.6 1.6 -9.84781
173 2 19.2 16 0 -9.9324
174 2 20.8 17.6 1.6 -9.90215
175 2 22.4 16 0 -9.85964
176 2 24 17.6 1.6 -9.87234
177 2 25.6 16 0 -9.82001
178 2 27.2 17.6 1.6 -9.86993
179 1 28.8 16 0 -11.77
180 2 30.4 17.6 1.6 -9.80059
181 2 32 16 0 -9.85893
182 1 33.6 17.6 1.6 -11.8072
183 2 35.2 16 0 -9.86528
184 4 36.8 17.6 1.6 -13.4056
185 3 38.4 16 0 -11.2932
186 3 40 17.6 1.6 -11.2891
187 3 41.6 16 0 -11.2492
188 2 43.2 17.6 1.6 -9.81331
189 2 44.8 16 0 -9.84705
190 1 46.4 17.6 1.6 -11.8165
191 3 48 16 0 -11.3271
192 1 49.6 17.6 1.6 -11.8213
193 3 0 19.2 0 -11.3572
194 2 1.6 20.8 1.6 -9.89038
195 2 3.2 19.2 0 -9.86609
196 4 4.8 20.8 1.6 -13.3677
197 2 6.4 19.2 0 -9.84245
198 2 8 20.8 1.6 -9.92841
199 2 9.6 19.2 0 -9.8583
200 2 11.2 20.8 1.6 -9.90179
201 1 12.8 19.2 0 -11.7382
202 2 14.4 20.8 1.6 -9.81236
203 2 16 19.2 0 -9.8608
204 1 17.6 20.8 1.6 -11.7741
205 2 19.2 19.2 0 -9.88884
206 2 20.8 20.8 1.6 -9.86736
207 1 22.4 19.2 0 -11.7679
208 2 24 20.8 1.6 -9.8656
209 4 25.6 19.2 0 -13.364
210 2 27.2 20.8 1.6 -9.85731
211 4 28.8 19.2 0 -13.3228
212 1 30.4 20.8 1.6 -11.8226
213 2 32 19.2 0 -9.8148
214 1 33.6 20.8 1.6 -11.7837
215 3 35.2 19.2 0 -11.1221
216 1 36.8 20.8 1.6 -11.7983
217 2 38.4 19.2 0 -9.80218
218 1 40 20.8 1.6 -11.8004
219 2 41.6 19.2 0 -9.83125
220 1 43.2 20.8 1.6 -11.8545
221 3 44.8 19.2 0 -11.2718
222 4 46.4 20.8 1.6 -13.4158
223 3 48 19.2 0 -11.2732
224 1 49.6 20.8 1.6 -11.8468
225 3 0 22.4 0 -11.4105
226 2 1.6 24 1.6 -9.92652
227 3 3.2 22.4 0 -11.3767
228 2 4.8 24 1.6 -9.92656
229 2 6.4 22.4 0 -9.96329
230 2 8 24 1.6 -9.90526
231 2 9.6 22.4 0 -9.90625
232 2 11.2 24 1.6 -9.81784
233 1 12.8 22.4 0 -11.7406
234 2 14.4 24 1.6 -9.85936
235 2 16 22.4 0 -9.89935
236 2 17.6 24 1.6 -9.88617
237 2 19.2 22.4 0 -9.92924
238 2 20.8 24 1.6 -9.89932
239 2 22.4 22.4 0 -9.83463
240 2 24 24 1.6 -9.86686
241 2 25.6 22.4 0 -9.88764
242 1 27.2 24 1.6 -11.8399
243 2 28.8 22.4 0 -9.86755
244 1 30.4 24 1.6 -11.8559
245 3 32 22.4 0 -11.2266
246 1 33.6 24 1.6 -11.8418
247 2 35.2 22.4 0 -9.80582
248 2 36.8 24 1.6 -9.83765
249 2 38.4 22.4 0 -9.85583
250 2 40 24 1.6 -9.8703
251 3 41.6 22.4 0 -11.2634
252 4 43.2 24 1.6 -13.3904
253 3 44.8 22.4 0 -11.3661
254 2 46.4 24 1.6 -9.86699
255 3 48 22.4 0 -11.3663
256 4 49.6 24 1.6 -13.3671
257 2 0 25.6 0 -9.86553
259 4 3.2 25.6 0 -13.4527
261 2 6.4 25.6 0 -9.89717
263 4 9.6 25.6 0 -13.3639
265 1 12.8 25.6 0 -11.7208
267 2 16 25.6 0 -9.87015
269 2 19.2 25.6 0 -9.90684
271 2 22.4 25.6 0 -9.86591
273 2 25.6 25.6 0 -9.84563
275 3 28.8 25.6 0 -11.2986
277 3 32 25.6 0 -11.2743
279 3 35.2 25.6 0 -11.3016
281 2 38.4 25.6 0 -9.85748
283 2 41.6 25.6 0 -9.84089
285 3 44.8 25.6 0 -11.2899
287 3 48 25.6 0 -11.3298
258 2 1.6 27.2 1.6 -9.9133
289 2 0 28.8 0 -9.83849
260 3 4.8 27.2 1.6 -11.3516
291 4 3.2 28.8 0 -13.3767
262 2 8 27.2 1.6 -9.88885
293 2 6.4 28.8 0 -9.88391
264 2 11.2 27.2 1.6 -9.88473
295 2 9.6 28.8 0 -9.85352
266 2 14.4 27.2 1.6 -9.92078
297 2 12.8 28.8 0 -9.86148
268 4 17.6 27.2 1.6 -13.3668
299 2 16 28.8 0 -9.92855
270 4 20.8 27.2 1.6 -13.4707
301 2 19.2 28.8 0 -9.90549
272 2 24 27.2 1.6 -9.91861
303 2 22.4 28.8 0 -9.9058
305 2 25.6 28.8 0 -9.83736
274 4 27.2 27.2 1.6 -13.3556
307 3 28.8 28.8 0 -11.2403
276 1 30.4 27.2 1.6 -11.8555
309 3 32 28.8 0 -11.2417
278 1 33.6 27.2 1.6 -11.8413
311 3 35.2 28.8 0 -11.2423
280 1 36.8 27.2 1.6 -11.8284
313 3 38.4 28.8 0 -11.2372
282 1 40 27.2 1.6 -11.7885
315 3 41.6 28.8 0 -11.2858
284 1 43.2 27.2 1.6 -11.7393
317 4 44.8 28.8 0 -13.3462
286 1 46.4 27.2 1.6 -11.78
319 2 48 28.8 0 -9.85064
288 4 49.6 27.2 1.6 -13.3234
290 3 1.6 30.4 1.6 -11.3202
321 2 0 32 0 -9.86996
292 3 4.8 30.4 1.6 -11.3032
323 4 3.2 32 0 -13.337
294 2 8 30.4 1.6 -9.81298
325 1 6.4 32 0 -11.7775
296 4 11.2 30.4 1.6 -13.2857
327 4 9.6 32 0 -13.3014
298 2 14.4 30.4 1.6 -9.77476
329 2 12.8 32 0 -9.82459
300 4 17.6 30.4 1.6 -13.3983
331 2 16 32 0 -9.88446
302 2 20.8 30.4 1.6 -9.88143
333 2 19.2 32 0 -9.88758
304 2 24 30.4 1.6 -9.9355
335 4 22.4 32 0 -13.4255
337 2 25.6 32 0 -9.83389
306 1 27.2 30.4 1.6 -11.8284
339 3 28.8 32 0 -11.2384
308 1 30.4 30.4 1.6 -11.8556
341 3 32 32 0 -11.2758
310 1 33.6 30.4 1.6 -11.8555
343 3 35.2 32 0 -11.2343
312 1 36.8 30.4 1.6 -11.8453
345 2 38.4 32 0 -9.87149
314 2 40 30.4 1.6 -9.83594
347 2 41.6 32 0 -9.90972
316 2 43.2 30.4 1.6 -9.92869
349 2 44.8 32 0 -9.9268
318 2 46.4 30.4 1.6 -9.91683
351 2 48 32 0 -9.90601
320 2 49.6 30.4 1.6 -9.90152
322 3 1.6 33.6 1.6 -11.2969
353 1 0 35.2 0 -11.8184
324 3 4.8 33.6 1.6 -11.2734
355 1 3.2 35.2 0 -11.8283
326 3 8 33.6 1.6 -11.2698
357 1 6.4 35.2 0 -11.8551
328 3 11.2 33.6 1.6 -11.3445
359 4 9.6 35.2 0 -13.3505
330 2 14.4 33.6 1.6 -9.9017
361 2 12.8 35.2 0 -9.95383
332 2 17.6 33.6 1.6 -9.85051
363 2 16 35.2 0 -9.9291
334 1 20.8 33.6 1.6 -11.7971
365 2 19.2 35.2 0 -9.93673
336 2 24 33.6 1.6 -9.87114
367 3 22.4 35.2 0 -11.3113
369 2 25.6 35.2 0 -9.83318
338 1 27.2 33.6 1.6 -11.8277
371 3 28.8 35.2 0 -11.1993
340 4 30.4 33.6 1.6 -13.365
373 3 32 35.2 0 -11.2741
342 1 33.6 33.6 1.6 -11.8287
375 2 35.2 35.2 0 -9.84024
344 4 36.8 33.6 1.6 -13.3134
377 2 38.4 35.2 0 -9.89615
346 4 40 33.6 1.6 -13.374
379 4 41.6 35.2 0 -13.3195
348 2 43.2 33.6 1.6 -9.87532
381 1 44.8 35.2 0 -11.8195
350 3 46.4 33.6 1.6 -11.4228
383 1 48 35.2 0 -11.8278
352 2 49.6 33.6 1.6 -9.91117
354 3 1.6 36.8 1.6 -11.2729
385 1 0 38.4 0 -11.8556
356 3 4.8 36.8 1.6 -11.3395
387 4 3.2 38.4 0 -13.3845
358 3 8 36.8 1.6 -11.3052
389 4 6.4 38.4 0 -13.3811
360 2 11.2 36.8 1.6 -9.90639
391 1 9.6 38.4 0 -11.8596
362 1 14.4 36.8 1.6 -11.8002
393 2 12.8 38.4 0 -9.90971
364 2 17.6 36.8 1.6 -9.91468
395 2 16 38.4 0 -9.94959
366 2 20.8 36.8 1.6 -9.89435
397 3 19.2 38.4 0 -11.3905
368 4 24 36.8 1.6 -13.4057
399 2 22.4 38.4 0 -9.88784
401 2 25.6 38.4 0 -9.80817
370 1 27.2 36.8 1.6 -11.746
403 2 28.8 38.4 0 -9.83445
372 1 30.4 36.8 1.6 -11.8146
405 3 32 38.4 0 -11.2854
374 4 33.6 36.8 1.6 -13.3222
407 2 35.2 38.4 0 -9.85076
376 1 36.8 36.8 1.6 -11.7422
409 2 38.4 38.4 0 -9.86191
378 2 40 36.8 1.6 -9.87747
411 4 41.6 38.4 0 -13.4281
380 2 43.2 36.8 1.6 -9.91155
413 1 44.8 38.4 0 -11.8432
382 3 46.4 36.8 1.6 -11.3049
415 1 48 38.4 0 -11.8415
384 3 49.6 36.8 1.6 -11.2397
386 3 1.6 40 1.6 -11.2756
417 1 0 41.6 0 -11.8557
388 3 4.8 40 1.6 -11.307
419 1 3.2 41.6 0 -11.8556
390 3 8 40 1.6 -11.3623
421 1 6.4 41.6 0 -11.8265
392 2 11.2 40 1.6 -9.92912
423 2 9.6 41.6 0 -9.85195
394 2 14.4 40 1.6 -9.88612
425 2 12.8 41.6 0 -9.91712
396 2 17.6 40 1.6 -9.96602
427 2 16 41.6 0 -9.96508
398 2 20.8 40 1.6 -9.88545
429 3 19.2 41.6 0 -11.4467
400 2 24 40 1.6 -9.90272
431 2 22.4 41.6 0 -9.9284
433 4 25.6 41.6 0 -13.3084
402 2 27.2 40 1.6 -9.8633
435 4 28.8 41.6 0 -13.3623
404 2 30.4 40 1.6 -9.91529
437 2 32 41.6 0 -9.92957
406 2 33.6 40 1.6 -9.83997
439 3 35.2 41.6 0 -11.2806
408 1 36.8 40 1.6 -11.7762
441 2 38.4 41.6 0 -9.88855
410 2 40 40 1.6 -9.88501
443 4 41.6 41.6 0 -13.378
412 3 43.2 40 1.6 -11.3327
445 1 44.8 41.6 0 -11.8555
414 3 46.4 40 1.6 -11.2756
447 1 48 41.6 0 -11.8416
416 3 49.6 40 1.6 -11.2414
418 3 1.6 43.2 1.6 -11.2753
449 4 0 44.8 0 -13.3656
420 3 4.8 43.2 1.6 -11.24
451 1 3.2 44.8 0 -11.8554
422 2 8 43.2 1.6 -9.84093
453 1 6.4 44.8 0 -11.7755
424 1 11.2 43.2 1.6 -11.7392
455 2 9.6 44.8 0 -9.75979
426 4 14.4 43.2 1.6 -13.3054
457 2 12.8 44.8 0 -9.85903
428 2 17.6 43.2 1.6 -9.91496
459 2 16 44.8 0 -9.94204
430 4 20.8 43.2 1.6 -13.4943
461 2 19.2 44.8 0 -9.9645
432 2 24 43.2 1.6 -9.8601
463 2 22.4 44.8 0 -9.9448
465 2 25.6 44.8 0 -9.85916
434 2 27.2 43.2 1.6 -9.81486
467 2 28.8 44.8 0 -9.89435
436 2 30.4 43.2 1.6 -9.92195
469 2 32 44.8 0 -9.92977
438 4 33.6 43.2 1.6 -13.3944
471 2 35.2 44.8 0 -9.91967
440 1 36.8 43.2 1.6 -11.8125
473 2 38.4 44.8 0 -9.8202
442 2 40 43.2 1.6 -9.83968
475 1 41.6 44.8 0 -11.8192
444 3 43.2 43.2 1.6 -11.24
477 1 44.8 44.8 0 -11.8556
446 3 46.4 43.2 1.6 -11.2414
479 1 48 44.8 0 -11.8557
448 3 49.6 43.2 1.6 -11.2753
450 3 1.6 46.4 1.6 -11.3389
481 1 0 48 0 -11.8552
452 3 4.8 46.4 1.6 -11.3059
483 1 3.2 48 0 -11.8963
454 2 8 46.4 1.6 -9.7604
485 1 6.4 48 0 -11.769
456 1 11.2 46.4 1.6 -11.7201
487 4 9.6 48 0 -13.3377
458 2 14.4 46.4 1.6 -9.88136
489 2 12.8 48 0 -9.92621
460 4 17.6 46.4 1.6 -13.4716
491 3 16 48 0 -11.4366
462 2 20.8 46.4 1.6 -9.93956
493 2 19.2 48 0 -9.93401
464 2 24 46.4 1.6 -9.92063
495 2 22.4 48 0 -9.90848
497 2 25.6 48 0 -9.93713
466 2 27.2 46.4 1.6 -9.8967
499 2 28.8 48 0 -9.89637
468 2 30.4 46.4 1.6 -9.90413
501 1 32 48 0 -11.7901
470 3 33.6 46.4 1.6 -11.2827
503 1 35.2 48 0 -11.8039
472 2 36.8 46.4 1.6 -9.81225
505 1 38.4 48 0 -11.7755
474 2 40 46.4 1.6 -9.762
507 4 41.6 48 0 -13.3106
476 3 43.2 46.4 1.6 -11.2403
509 1 44.8 48 0 -11.8555
478 3 46.4 46.4 1.6 -11.2414
511 1 48 48 0 -11.8557
480 3 49.6 46.4 1.6 -11.2753
482 3 1.6 49.6 1.6 -11.3405
484 3 4.8 49.6 1.6 -11.3617
486 2 8 49.6 1.6 -9.90179
488 2 11.2 49.6 1.6 -9.87071
490 2 14.4 49.6 1.6 -9.94769
492 2 17.6 49.6 1.6 -9.88844
494 4 20.8 49.6 1.6 -13.3918
496 2 24 49.6 1.6 -9.91306
498 4 27.2 49.6 1.6 -13.4208
500 2 30.4 49.6 1.6 -9.85864
502 3 33.6 49.6 1.6 -11.1651
504 3 36.8 49.6 1.6 -11.2045
506 3 40 49.6 1.6 -11.2403
508 3 43.2 49.6 1.6 -11.2756
510 3 46.4 49.6 1.6 -11.2753
512 3 49.6 49.6 1.6 -11.2753
513 1 0 0 3.2 -11.8412
514 3 1.6 1.6 4.8 -11.1651
515 1 3.2 0 3.2 -11.8371
516 2 4.8 1.6 4.8 -9.7566
517 4 6.4 0 3.2 -13.3505
518 2 8 1.6 4.8 -9.89047
519 2 9.6 0 3.2 -9.88983
520 2 11.2 1.6 4.8 -9.87662
521 2 12.8 0 3.2 -9.92064
522 2 14.4 1.6 4.8 -9.97134
523 4 16 0 3.2 -13.4209
524 3 17.6 1.6 4.8 -11.2636
525 4 19.2 0 3.2 -13.3561
526 2 20.8 1.6 4.8 -9.86833
527 3 22.4 0 3.2 -11.297
528 2 24 1.6 4.8 -9.91782
529 4 25.6 0 3.2 -13.4186
530 3 27.2 1.6 4.8 -11.3839
531 2 28.8 0 3.2 -9.8829
532 3 30.4 1.6 4.8 -11.3881
533 1 32 0 3.2 -11.814
534 3 33.6 1.6 4.8 -11.3017
535 1 35.2 0 3.2 -11.828
536 3 36.8 1.6 4.8 -11.2737
537 1 38.4 0 3.2 -11.8554
538 3 40 1.6 4.8 -11.2379
539 1 41.6 0 3.2 -11.8414
540 3 43.2 1.6 4.8 -11.2759
541 1 44.8 0 3.2 -11.8415
542 3 46.4 1.6 4.8 -11.2414
543 1 48 0 3.2 -11.8558
544 3 49.6 1.6 4.8 -11.2417
545 1 0 3.2 3.2 -11.7958
546 2 1.6 4.8 4.8 -9.81072
547 1 3.2 3.2 3.2 -11.7487
548 2 4.8 4.8 4.8 -9.84736
549 4 6.4 3.2 3.2 -13.3639
550 2 8 4.8 4.8 -9.88181
551 2 9.6 3.2 3.2 -9.88626
552 4 11.2 4.8 4.8 -13.4177
553 2 12.8 3.2 3.2 -9.87484
554 3 14.4 4.8 4.8 -11.4169
555 4 16 3.2 3.2 -13.3752
556 3 17.6 4.8 4.8 -11.3017
557 1 19.2 3.2 3.2 -11.8061
558 3 20.8 4.8 4.8 -11.2614
559 4 22.4 3.2 3.2 -13.4327
560 2 24 4.8 4.8 -9.91963
561 2 25.6 3.2 3.2 -9.82574
562 3 27.2 4.8 4.8 -11.3623
563 1 28.8 3.2 3.2 -11.8403
564 3 30.4 4.8 4.8 -11.2718
565 1 32 3.2 3.2 -11.8255
566 3 33.6 4.8 4.8 -11.24
567 1 35.2 3.2 3.2 -11.8413
568 3 36.8 4.8 4.8 -11.24
569 1 38.4 3.2 3.2 -11.8412
570 2 40 4.8 4.8 -9.83479
571 1 41.6 3.2 3.2 -11.8573
572 3 43.2 4.8 4.8 -11.3083
573 1 44.8 3.2 3.2 -11.8555
574 3 46.4 4.8 4.8 -11.2417
575 1 48 3.2 3.2 -11.8414
576 3 49.6 4.8 4.8 -11.2743
577 1 0 6.4 3.2 -11.8185
578 2 1.6 8 4.8 -9.94332
579 2 3.2 6.4 3.2 -9.88317
580 2 4.8 8 4.8 -9.92059
581 2 6.4 6.4 3.2 -9.90622
582 2 8 8 4.8 -9.91181
583 2 9.6 6.4 3.2 -9.85754
584 2 11.2 8 4.8 -9.87927
585 2 12.8 6.4 3.2 -9.86109
586 3 14.4 8 4.8 -11.359
587 4 16 6.4 3.2 -13.3223
588 2 17.6 8 4.8 -9.82036
589 1 19.2 6.4 3.2 -11.7743
590 2 20.8 8 4.8 -9.79157
591 1 22.4 6.4 3.2 -11.8007
592 3 24 8 4.8 -11.2522
593 1 25.6 6.4 3.2 -11.8411
594 3 27.2 8 4.8 -11.4212
595 1 28.8 6.4 3.2 -11.8046
596 3 30.4 8 4.8 -11.2367
597 1 32 6.4 3.2 -11.814
598 3 33.6 8 4.8 -11.2048
599 1 35.2 6.4 3.2 -11.8553
600 3 36.8 8 4.8 -11.239
601 4 38.4 6.4 3.2 -13.404
602 3 40 8 4.8 -11.3249
603 2 41.6 6.4 3.2 -9.84393
604 3 43.2 8 4.8 -11.4139
605 1 44.8 6.4 3.2 -11.8568
606 3 46.4 8 4.8 -11.27
607 1 48 6.4 3.2 -11.8412
608 3 49.6 8 4.8 -11.3282
609 2 0 9.6 3.2 -9.84953
610 4 1.6 11.2 4.8 -13.3614
611 2 3.2 9.6 3.2 -9.90013
612 4 4.8 11.2 4.8 -13.4184
613 2 6.4 9.6 3.2 -9.9369
614 2 8 11.2 4.8 -9.90474
615 4 9.6 9.6 3.2 -13.2749
616 2 11.2 11.2 4.8 -9.86575
617 4 12.8 9.6 3.2 -13.2854
618 2 14.4 11.2 4.8 -9.83444
619 1 16 9.6 3.2 -11.7545
620 2 17.6 11.2 4.8 -9.82095
621 2 19.2 9.6 3.2 -9.78445
622 2 20.8 11.2 4.8 -9.7904
623 1 22.4 9.6 3.2 -11.7391
624 4 24 11.2 4.8 -13.298
625 1 25.6 9.6 3.2 -11.8423
626 3 27.2 11.2 4.8 -11.3529
627 1 28.8 9.6 3.2 -11.8401
628 3 30.4 11.2 4.8 -11.3266
629 1 32 9.6 3.2 -11.8155
630 2 33.6 11.2 4.8 -9.83773
631 1 35.2 9.6 3.2 -11.774
632 2 36.8 11.2 4.8 -9.8347
633 1 38.4 9.6 3.2 -11.8083
634 2 40 11.2 4.8 -9.90725
635 2 41.6 9.6 3.2 -9.90673
636 2 43.2 11.2 4.8 -9.92249
637 4 44.8 9.6 3.2 -13.4261
638 2 46.4 11.2 4.8 -9.88591
639 1 48 9.6 3.2 -11.805
640 2 49.6 11.2 4.8 -9.90691
641 2 0 12.8 3.2 -9.86549
642 4 1.6 14.4 4.8 -13.3925
643 2 3.2 12.8 3.2 -9.88949
644 2 4.8 14.4 4.8 -9.90482
645 2 6.4 12.8 3.2 -9.91571
646 2 8 14.4 4.8 -9.86598
647 4 9.6 12.8 3.2 -13.3634
648 2 11.2 14.4 4.8 -9.84583
649 1 12.8 12.8 3.2 -11.7425
650 2 14.4 14.4 4.8 -9.85729
651 1 16 12.8 3.2 -11.6476
652 2 17.6 14.4 4.8 -9.80237
653 4 19.2 12.8 3.2 -13.3385
654 2 20.8 14.4 4.8 -9.85864
655 1 22.4 12.8 3.2 -11.7299
656 2 24 14.4 4.8 -9.89776
657 2 25.6 12.8 3.2 -9.83246
658 2 27.2 14.4 4.8 -9.86676
659 4 28.8 12.8 3.2 -13.4103
660 2 30.4 14.4 4.8 -9.86132
661 2 32 12.8 3.2 -9.90053
662 1 33.6 14.4 4.8 -11.7981
663 2 35.2 12.8 3.2 -9.88681
664 4 36.8 14.4 4.8 -13.3454
665 2 38.4 12.8 3.2 -9.86286
666 2 40 14.4 4.8 -9.82726
667 2 41.6 12.8 3.2 -9.88501
668 1 43.2 14.4 4.8 -11.753
669 2 44.8 12.8 3.2 -9.83575
670 4 46.4 14.4 4.8 -13.2837
671 2 48 12.8 3.2 -9.88671
672 2 49.6 14.4 4.8 -9.81579
673 3 0 16 3.2 -11.3238
674 2 1.6 17.6 4.8 -9.91336
675 2 3.2 16 3.2 -9.89635
676 3 4.8 17.6 4.8 -11.3106
677 4 6.4 16 3.2 -13.3978
678 2 8 17.6 4.8 -9.78257
679 2 9.6 16 3.2 -9.86873
680 2 11.2 17.6 4.8 -9.90174
681 2 12.8 16 3.2 -9.88307
682 2 14.4 17.6 4.8 -9.86446
683 1 16 16 3.2 -11.7187
684 1 17.6 17.6 4.8 -11.7666
685 2 19.2 16 3.2 -9.86542
686 4 20.8 17.6 4.8 -13.451
687 2 22.4 16 3.2 -9.85655
688 2 24 17.6 4.8 -9.90789
689 1 25.6 16 3.2 -11.8015
690 2 27.2 17.6 4.8 -9.87631
691 1 28.8 16 3.2 -11.7465
692 4 30.4 17.6 4.8 -13.3885
693 2 32 16 3.2 -9.84222
694 1 33.6 17.6 4.8 -11.8255
695 3 35.2 16 3.2 -11.2938
696 4 36.8 17.6 4.8 -13.3706
697 2 38.4 16 3.2 -9.94188
698 1 40 17.6 4.8 -11.7917
699 3 41.6 16 3.2 -11.2842
700 1 43.2 17.6 4.8 -11.7477
701 2 44.8 16 3.2 -9.78908
702 1 46.4 17.6 4.8 -11.713
703 3 48 16 3.2 -11.2285
704 1 49.6 17.6 4.8 -11.7957
705 2 0 19.2 3.2 -9.8673
706 2 1.6 20.8 4.8 -9.92308
707 1 3.2 19.2 3.2 -11.7848
708 2 4.8 20.8 4.8 -9.89215
709 2 6.4 19.2 3.2 -9.8453
710 2 8 20.8 4.8 -9.91842
711 2 9.6 19.2 3.2 -9.91569
712 2 11.2 20.8 4.8 -9.88355
713 2 12.8 19.2 3.2 -9.89924
714 1 14.4 20.8 4.8 -11.7647
715 2 16 19.2 3.2 -9.78859
716 1 17.6 20.8 4.8 -11.7243
717 2 19.2 19.2 3.2 -9.86519
718 3 20.8 20.8 4.8 -11.3093
719 4 22.4 19.2 3.2 -13.3707
720 2 24 20.8 4.8 -9.9226
721 2 25.6 19.2 3.2 -9.89328
722 4 27.2 20.8 4.8 -13.4244
723 3 28.8 19.2 3.2 -11.3095
724 1 30.4 20.8 4.8 -11.8851
725 3 32 19.2 3.2 -11.2705
726 1 33.6 20.8 4.8 -11.8551
727 3 35.2 19.2 3.2 -11.3086
728 1 36.8 20.8 4.8 -11.8127
729 3 38.4 19.2 3.2 -11.2628
730 1 40 20.8 4.8 -11.775
731 2 41.6 19.2 3.2 -9.86463
732 4 43.2 20.8 4.8 -13.3423
733 3 44.8 19.2 3.2 -11.291
734 2 46.4 20.8 4.8 -9.91088
735 2 48 19.2 3.2 -9.83234
736 2 49.6 20.8 4.8 -9.83064
737 2 0 22.4 3.2 -9.91228
738 2 1.6 24 4.8 -9.91565
739 4 3.2 22.4 3.2 -13.3894
740 2 4.8 24 4.8 -9.92866
741 2 6.4 22.4 3.2 -9.89202
742 2 8 24 4.8 -9.88983
743 2 9.6 22.4 3.2 -9.94099
744 1 11.2 24 4.8 -11.7676
745 2 12.8 22.4 3.2 -9.8406
746 1 14.4 24 4.8 -11.7543
747 2 16 22.4 3.2 -9.78386
748 4 17.6 24 4.8 -13.2767
749 2 19.2 22.4 3.2 -9.85909
750 2 20.8 24 4.8 -9.91201
751 1 22.4 22.4 3.2 -11.8027
752 2 24 24 4.8 -9.91581
753 2 25.6 22.4 3.2 -9.88919
754 1 27.2 24 4.8 -11.8434
755 3 28.8 22.4 3.2 -11.3015
756 4 30.4 24 4.8 -13.3639
757 3 32 22.4 3.2 -11.2761
758 1 33.6 24 4.8 -11.8554
759 3 35.2 22.4 3.2 -11.274
760 1 36.8 24 4.8 -11.8302
761 3 38.4 22.4 3.2 -11.3265
762 2 40 24 4.8 -9.87201
763 3 41.6 22.4 3.2 -11.3534
764 4 43.2 24 4.8 -13.4239
765 3 44.8 22.4 3.2 -11.4598
766 2 46.4 24 4.8 -9.9039
767 3 48 22.4 3.2 -11.3977
768 1 49.6 24 4.8 -11.7836
769 2 0 25.6 3.2 -9.88338
771 2 3.2 25.6 3.2 -9.86305
773 1 6.4 25.6 3.2 -11.8094
775 4 9.6 25.6 3.2 -13.3164
777 2 12.8 25.6 3.2 -9.83318
779 2 16 25.6 3.2 -9.86538
781 2 19.2 25.6 3.2 -9.92951
783 2 22.4 25.6 3.2 -9.91525
785 3 25.6 25.6 3.2 -11.4288
787 3 28.8 25.6 3.2 -11.3087
789 3 32 25.6 3.2 -11.2753
791 3 35.2 25.6 3.2 -11.3085
793 2 38.4 25.6 3.2 -9.91728
795 2 41.6 25.6 3.2 -9.86481
797 2 44.8 25.6 3.2 -9.91149
799 2 48 25.6 3.2 -9.91759
770 2 1.6 27.2 4.8 -9.88361
801 4 0 28.8 3.2 -13.3506
772 3 4.8 27.2 4.8 -11.3222
803 1 3.2 28.8 3.2 -11.8449
774 2 8 27.2 4.8 -9.8872
805 1 6.4 28.8 3.2 -11.8052
776 2 11.2 27.2 4.8 -9.86755
807 2 9.6 28.8 3.2 -9.84627
778 2 14.4 27.2 4.8 -9.81301
809 2 12.8 28.8 3.2 -9.87692
780 1 17.6 27.2 4.8 -11.7927
811 2 16 28.8 3.2 -9.84789
782 3 20.8 27.2 4.8 -11.3842
813 3 19.2 28.8 3.2 -11.3563
784 3 24 27.2 4.8 -11.4892
815 2 22.4 28.8 3.2 -9.99652
817 3 25.6 28.8 3.2 -11.4595
786 1 27.2 27.2 4.8 -11.891
819 3 28.8 28.8 3.2 -11.2756
788 1 30.4 27.2 4.8 -11.8554
821 3 32 28.8 3.2 -11.2753
790 1 33.6 27.2 4.8 -11.8694
823 3 35.2 28.8 3.2 -11.3388
792 4 36.8 27.2 4.8 -13.4018
825 3 38.4 28.8 3.2 -11.3508
794 2 40 27.2 4.8 -9.87315
827 2 41.6 28.8 3.2 -9.88544
796 2 43.2 27.2 4.8 -9.8137
829 2 44.8 28.8 3.2 -9.8569
798 2 46.4 27.2 4.8 -9.89934
831 2 48 28.8 3.2 -9.90118
800 2 49.6 27.2 4.8 -9.85689
802 3 1.6 30.4 4.8 -11.2342
833 4 0 32 3.2 -13.427
804 3 4.8 30.4 4.8 -11.2385
835 1 3.2 32 3.2 -11.8406
806 2 8 30.4 4.8 -9.86457
837 1 6.4 32 3.2 -11.8083
808 2 11.2 30.4 4.8 -9.83263
839 1 9.6 32 3.2 -11.7741
810 1 14.4 30.4 4.8 -11.6588
841 1 12.8 32 3.2 -11.7114
812 2 17.6 30.4 4.8 -9.77065
843 1 16 32 3.2 -11.6854
814 2 20.8 30.4 4.8 -9.93194
845 2 19.2 32 3.2 -9.86519
816 2 24 30.4 4.8 -9.90827
847 2 22.4 32 3.2 -9.90556
849 3 25.6 32 3.2 -11.3867
818 1 27.2 30.4 4.8 -11.881
851 3 28.8 32 3.2 -11.2759
820 1 30.4 30.4 4.8 -11.8817
853 3 32 32 3.2 -11.3084
822 4 33.6 30.4 4.8 -13.3587
855 3 35.2 32 3.2 -11.2984
824 4 36.8 30.4 4.8 -13.4294
857 2 38.4 32 3.2 -9.89086
826 2 40 30.4 4.8 -9.90302
859 4 41.6 32 3.2 -13.427
828 2 43.2 30.4 4.8 -9.87984
861 3 44.8 32 3.2 -11.4369
830 2 46.4 30.4 4.8 -9.95154
863 2 48 32 3.2 -9.94793
832 2 49.6 30.4 4.8 -9.92995
834 2 1.6 33.6 4.8 -9.84474
865 4 0 35.2 3.2 -13.3062
836 3 4.8 33.6 4.8 -11.3332
867 1 3.2 35.2 3.2 -11.8441
838 3 8 33.6 4.8 -11.2978
869 4 6.4 35.2 3.2 -13.3581
840 3 11.2 33.6 4.8 -11.4089
871 1 9.6 35.2 3.2 -11.8712
842 2 14.4 33.6 4.8 -9.82994
873 3 12.8 35.2 3.2 -11.3364
844 2 17.6 33.6 4.8 -9.82901
875 2 16 35.2 3.2 -9.86543
846 1 20.8 33.6 4.8 -11.7949
877 2 19.2 35.2 3.2 -9.91225
848 4 24 33.6 4.8 -13.4115
879 3 22.4 35.2 3.2 -11.43
881 3 25.6 35.2 3.2 -11.3238
850 1 27.2 33.6 4.8 -11.7954
883 3 28.8 35.2 3.2 -11.1999
852 1 30.4 33.6 4.8 -11.8253
885 3 32 35.2 3.2 -11.3028
854 1 33.6 33.6 4.8 -11.8337
887 2 35.2 35.2 3.2 -9.86791
856 2 36.8 33.6 4.8 -9.88414
889 2 38.4 35.2 3.2 -9.88987
858 2 40 33.6 4.8 -9.85338
891 2 41.6 35.2 3.2 -9.88311
860 4 43.2 33.6 4.8 -13.4493
893 2 44.8 35.2 3.2 -9.90522
862 2 46.4 33.6 4.8 -9.99424
895 1 48 35.2 3.2 -11.8866
864 3 49.6 33.6 4.8 -11.3436
866 2 1.6 36.8 4.8 -9.84065
897 1 0 38.4 3.2 -11.8279
868 3 4.8 36.8 4.8 -11.3818
899 1 3.2 38.4 3.2 -11.8557
870 2 8 36.8 4.8 -9.91298
901 1 6.4 38.4 3.2 -11.8859
872 3 11.2 36.8 4.8 -11.3324
903 4 9.6 38.4 3.2 -13.3744
874 1 14.4 36.8 4.8 -11.7785
905 2 12.8 38.4 3.2 -9.90428
876 4 17.6 36.8 4.8 -13.3932
907 2 16 38.4 3.2 -9.8587
878 2 20.8 36.8 4.8 -9.88408
909 2 19.2 38.4 3.2 -9.94545
880 2 24 36.8 4.8 -9.88975
911 2 22.4 38.4 3.2 -9.94957
913 2 25.6 38.4 3.2 -9.86318
882 1 27.2 36.8 4.8 -11.7487
915 2 28.8 38.4 3.2 -9.83104
884 1 30.4 36.8 4.8 -11.7913
917 2 32 38.4 3.2 -9.89288
886 2 33.6 36.8 4.8 -9.81576
919 2 35.2 38.4 3.2 -9.86762
888 2 36.8 36.8 4.8 -9.88316
921 2 38.4 38.4 3.2 -9.84594
890 4 40 36.8 4.8 -13.4213
923 2 41.6 38.4 3.2 -9.88034
892 2 43.2 36.8 4.8 -9.88034
925 4 44.8 38.4 3.2 -13.4064
894 3 46.4 36.8 4.8 -11.3557
927 1 48 38.4 3.2 -11.8553
896 3 49.6 36.8 4.8 -11.271
898 3 1.6 40 4.8 -11.2685
929 1 0 41.6 3.2 -11.8556
900 3 4.8 40 4.8 -11.4183
931 1 3.2 41.6 3.2 -11.8551
902 3 8 40 4.8 -11.3501
933 1 6.4 41.6 3.2 -11.8578
904 2 11.2 40 4.8 -9.93083
935 2 9.6 41.6 3.2 -9.85573
906 4 14.4 40 4.8 -13.3332
937 2 12.8 41.6 3.2 -9.86556
908 2 17.6 40 4.8 -9.88606
939 2 16 41.6 3.2 -9.87876
910 1 20.8 40 4.8 -11.8079
941 2 19.2 41.6 3.2 -9.96625
912 2 24 40 4.8 -9.88093
943 2 22.4 41.6 3.2 -9.88444
945 1 25.6 41.6 3.2 -11.7407
914 2 27.2 40 4.8 -9.88104
947 2 28.8 41.6 3.2 -9.88606
916 2 30.4 40 4.8 -9.89215
949 4 32 41.6 3.2 -13.3683
918 4 33.6 40 4.8 -13.3995
951 3 35.2 41.6 3.2 -11.2886
920 4 36.8 40 4.8 -13.3353
953 2 38.4 41.6 3.2 -9.84335
922 4 40 40 4.8 -13.3759
955 1 41.6 41.6 3.2 -11.8092
924 3 43.2 40 4.8 -11.3248
957 1 44.8 41.6 3.2 -11.8553
926 3 46.4 40 4.8 -11.2761
959 1 48 41.6 3.2 -11.8415
928 3 49.6 40 4.8 -11.2764
930 3 1.6 43.2 4.8 -11.2732
961 1 0 44.8 3.2 -11.8555
932 3 4.8 43.2 4.8 -11.3606
963 1 3.2 44.8 3.2 -11.8815
934 2 8 43.2 4.8 -9.91947
965 4 6.4 44.8 3.2 -13.3528
936 2 11.2 43.2 4.8 -9.8348
967 2 9.6 44.8 3.2 -9.8338
938 1 14.4 43.2 4.8 -11.714
969 2 12.8 44.8 3.2 -9.8182
940 2 17.6 43.2 4.8 -9.9246
971 4 16 44.8 3.2 -13.3655
942 2 20.8 43.2 4.8 -9.90905
973 3 19.2 44.8 3.2 -11.4179
944 2 24 43.2 4.8 -9.78425
975 2 22.4 44.8 3.2 -9.90254
977 1 25.6 44.8 3.2 -11.7091
946 2 27.2 43.2 4.8 -9.77554
979 2 28.8 44.8 3.2 -9.8976
948 2 30.4 43.2 4.8 -9.86731
981 2 32 44.8 3.2 -9.85814
950 1 33.6 43.2 4.8 -11.7971
983 2 35.2 44.8 3.2 -9.88569
952 2 36.8 43.2 4.8 -9.8414
985 2 38.4 44.8 3.2 -9.83605
954 2 40 43.2 4.8 -9.86186
987 1 41.6 44.8 3.2 -11.7451
956 3 43.2 43.2 4.8 -11.3057
989 1 44.8 44.8 3.2 -11.8416
958 3 46.4 43.2 4.8 -11.2414
991 1 48 44.8 3.2 -11.8416
960 3 49.6 43.2 4.8 -11.2756
962 3 1.6 46.4 4.8 -11.3081
993 1 0 48 3.2 -11.868
964 3 4.8 46.4 4.8 -11.3312
995 2 3.2 48 3.2 -9.76975
966 2 8 46.4 4.8 -9.89483
997 1 6.4 48 3.2 -11.8246
968 2 11.2 46.4 4.8 -9.87879
999 4 9.6 48 3.2 -13.3402
970 2 14.4 46.4 4.8 -9.91319
1001 2 12.8 48 3.2 -9.91817
972 2 17.6 46.4 4.8 -9.94364
1003 2 16 48 3.2 -9.93835
974 3 20.8 46.4 4.8 -11.3911
1005 2 19.2 48 3.2 -9.91211
976 2 24 46.4 4.8 -9.81173
1007 2 22.4 48 3.2 -9.95009
1009 2 25.6 48 3.2 -9.87882
978 4 27.2 46.4 4.8 -13.3058
1011 2 28.8 48 3.2 -9.88421
980 4 30.4 46.4 4.8 -13.338
1013 1 32 48 3.2 -11.7213
982 2 33.6 46.4 4.8 -9.78706
1015 1 35.2 48 3.2 -11.7553
984 2 36.8 46.4 4.8 -9.86254
1017 1 38.4 48 3.2 -11.7615
986 4 40 46.4 4.8 -13.2452
1019 1 41.6 48 3.2 -11.7613
988 3 43.2 46.4 4.8 -11.2023
1021 1 44.8 48 3.2 -11.8416
990 3 46.4 46.4 4.8 -11.2414
1023 1 48 48 3.2 -11.8416
992 3 49.6 46.4 4.8 -11.2414
994 3 1.6 49.6 4.8 -11.3078
996 3 4.8 49.6 4.8 -11.3066
998 3 8 49.6 4.8 -11.2576
1000 2 11.2 49.6 4.8 -9.92771
1002 2 14.4 49.6 4.8 -9.957
1004 2 17.6 49.6 4.8 -9.8891
1006 2 20.8 49.6 4.8 -9.80461
1008 2 24 49.6 4.8 -9.88511
1010 2 27.2 49.6 4.8 -9.92104
1012 2 30.4 49.6 4.8 -9.87767
1014 2 33.6 49.6 4.8 -9.78018
1016 3 36.8 49.6 4.8 -11.2653
1018 3 40 49.6 4.8 -11.2331
1020 3 43.2 49.6 4.8 -11.2423
1022 3 46.4 49.6 4.8 -11.2414
1024 3 49.6 49.6 4.8 -11.2414
1025 1 0 0 6.4 -11.8417
1026 3 1.6 1.6 8 -11.2386
1027 1 3.2 0 6.4 -11.7801
1028 2 4.8 1.6 8 -9.83153
1029 1 6.4 0 6.4 -11.744
1030 2 8 1.6 8 -9.85369
1031 1 9.6 0 6.4 -11.7747
1032 2 11.2 1.6 8 -9.89654
1033 2 12.8 0 6.4 -9.92272
1034 3 14.4 1.6 8 -11.3946
1035 2 16 0 6.4 -9.84981
1036 3 17.6 1.6 8 -11.3737
1037 1 19.2 0 6.4 -11.7679
1038 3 20.8 1.6 8 -11.2666
1039 1 22.4 0 6.4 -11.7587
1040 3 24 1.6 8 -11.2371
1041 4 25.6 0 6.4 -13.346
1042 3 27.2 1.6 8 -11.2316
1043 2 28.8 0 6.4 -9.89098
1044 2 30.4 1.6 8 -9.86064
1045 2 32 0 6.4 -9.88404
1046 2 33.6 1.6 8 -9.89019
1047 4 35.2 0 6.4 -13.352
1048 2 36.8 1.6 8 -9.89068
1049 4 38.4 0 6.4 -13.3496
1050 2 40 1.6 8 -9.81838
1051 1 41.6 0 6.4 -11.8133
1052 3 43.2 1.6 8 -11.3049
1053 1 44.8 0 6.4 -11.8416
1054 3 46.4 1.6 8 -11.2414
1055 1 48 0 6.4 -11.8417
1056 3 49.6 1.6 8 -11.2417
1057 1 0 3.2 6.4 -11.8141
1058 2 1.6 4.8 8 -9.84892
1059 1 3.2 3.2 6.4 -11.7671
1060 2 4.8 4.8 8 -9.86345
1061 2 6.4 3.2 6.4 -9.82386
1062 4 8 4.8 8 -13.42
1063 2 9.6 3.2 6.4 -9.90188
1064 2 11.2 4.8 8 -9.91899
1065 2 12.8 3.2 6.4 -9.93938
1066 2 14.4 4.8 8 -9.94754
1067 1 16 3.2 6.4 -11.9021
1068 3 17.6 4.8 8 -11.2948
1069 1 19.2 3.2 6.4 -11.8164
1070 2 20.8 4.8 8 -9.8348
1071 2 22.4 3.2 6.4 -9.80432
1072 2 24 4.8 8 -9.88997
1073 1 25.6 3.2 6.4 -11.8346
1074 2 27.2 4.8 8 -9.87502
1075 1 28.8 3.2 6.4 -11.8279
1076 2 30.4 4.8 8 -9.78732
1077 4 32 3.2 6.4 -13.2924
1078 2 33.6 4.8 8 -9.78132
1079 1 35.2 3.2 6.4 -11.8205
1080 3 36.8 4.8 8 -11.2919
1081 1 38.4 3.2 6.4 -11.7905
1082 2 40 4.8 8 -9.86383
1083 4 41.6 3.2 6.4 -13.3282
1084 3 43.2 4.8 8 -11.3052
1085 1 44.8 3.2 6.4 -11.8556
1086 3 46.4 4.8 8 -11.2039
1087 1 48 3.2 6.4 -11.8415
1088 3 49.6 4.8 8 -11.2386
1089 2 0 6.4 6.4 -9.82738
1090 2 1.6 8 8 -9.88066
1091 2 3.2 6.4 6.4 -9.83325
1092 2 4.8 8 8 -9.90824
1093 1 6.4 6.4 6.4 -11.7819
1094 2 8 8 8 -9.87521
1095 2 9.6 6.4 6.4 -9.90052
1096 2 11.2 8 8 -9.90576
1097 2 12.8 6.4 6.4 -9.96645
1098 4 14.4 8 8 -13.4514
1099 2 16 6.4 6.4 -9.86953
1100 2 17.6 8 8 -9.84072
1101 1 19.2 6.4 6.4 -11.7559
1102 2 20.8 8 8 -9.81596
1103 2 22.4 6.4 6.4 -9.83793