ITEM: TIMESTEP
0
ITEM: NUMBER OF ATOMS
8192
ITEM: BOX BOUNDS pp pp pp
0.0000000000000000e+00 5.1200000000000003e+01
0.0000000000000000e+00 5.1200000000000003e+01
0.0000000000000000e+00 5.1200000000000003e+01
ITEM: ATOMS id type x y z c_eng
1 4 0 0 0 -13.3639
2 3 1.6 1.6 1.6 -11.2761
3 1 3.2 0 0 -11.7972
4 3 4.8 1.6 1.6 -11.2584
5 1 6.4 0 0 -11.7893
6 2 8 1.6 1.6 -9.90908
7 4 9.6 0 0 -13.3129
8 2 11.2 1.6 1.6 -9.92703
9 4 12.8 0 0 -13.3583
10 3 14.4 1.6 1.6 -11.3497
11 4 16 0 0 -13.4131
12 2 17.6 1.6 1.6 -9.88846
13 1 19.2 0 0 -11.7521
14 2 20.8 1.6 1.6 -9.8661
15 2 22.4 0 0 -9.8531
16 2 24 1.6 1.6 -9.94629
17 3 25.6 0 0 -11.398
18 2 27.2 1.6 1.6 -9.96788
19 2 28.8 0 0 -9.97892
20 2 30.4 1.6 1.6 -9.94588
21 2 32 0 0 -9.98509
22 4 33.6 1.6 1.6 -13.416
23 3 35.2 0 0 -11.3685
24 2 36.8 1.6 1.6 -9.87227
25 1 38.4 0 0 -11.7929
26 3 40 1.6 1.6 -11.3639
27 2 41.6 0 0 -9.86268
28 3 43.2 1.6 1.6 -11.3856
29 1 44.8 0 0 -11.8285
30 3 46.4 1.6 1.6 -11.3073
31 1 48 0 0 -11.8695
32 3 49.6 1.6 1.6 -11.2753
33 1 0 3.2 0 -11.8817
34 3 1.6 4.8 1.6 -11.2039
35 1 3.2 3.2 0 -11.8181
36 2 4.8 4.8 1.6 -9.83773
37 2 6.4 3.2 0 -9.86669
38 1 8 4.8 1.6 -11.8087
39 2 9.6 3.2 0 -9.96441
40 4 11.2 4.8 1.6 -13.454
41 3 12.8 3.2 0 -11.4489
42 1 14.4 4.8 1.6 -11.8681
43 3 16 3.2 0 -11.3876
44 1 17.6 4.8 1.6 -11.8118
45 2 19.2 3.2 0 -9.89705
46 2 20.8 4.8 1.6 -9.88378
47 4 22.4 3.2 0 -13.3619
48 2 24 4.8 1.6 -9.86935
49 2 25.6 3.2 0 -9.92681
50 2 27.2 4.8 1.6 -9.86657
51 2 28.8 3.2 0 -9.92837
52 2 30.4 4.8 1.6 -9.88147
53 2 32 3.2 0 -9.90083
54 2 33.6 4.8 1.6 -9.91268
55 2 35.2 3.2 0 -9.93502
56 4 36.8 4.8 1.6 -13.4491
57 2 38.4 3.2 0 -9.86055
58 2 40 4.8 1.6 -9.90567
59 2 41.6 3.2 0 -9.8902
60 3 43.2 4.8 1.6 -11.3818
61 4 44.8 3.2 0 -13.3972
62 3 46.4 4.8 1.6 -11.3383
63 1 48 3.2 0 -11.8552
64 3 49.6 4.8 1.6 -11.2417
65 1 0 6.4 0 -11.8274
66 3 1.6 8 1.6 -11.3028
67 1 3.2 6.4 0 -11.8177
68 2 4.8 8 1.6 -9.86664
69 2 6.4 6.4 0 -9.81472
70 1 8 8 1.6 -11.7801
71 3 9.6 6.4 0 -11.287
72 4 11.2 8 1.6 -13.4137
73 3 12.8 6.4 0 -11.3929
74 1 14.4 8 1.6 -11.8968
75 3 16 6.4 0 -11.3619
76 4 17.6 8 1.6 -13.3743
77 2 19.2 6.4 0 -9.93183
78 2 20.8 8 1.6 -9.86016
79 2 22.4 6.4 0 -9.84595
80 2 24 8 1.6 -9.79712
81 4 25.6 6.4 0 -13.3346
82 2 27.2 8 1.6 -9.81781
83 2 28.8 6.4 0 -9.91444
84 4 30.4 8 1.6 -13.4469
85 2 32 6.4 0 -9.94387
86 3 33.6 8 1.6 -11.3636
87 2 35.2 6.4 0 -9.92555
88 2 36.8 8 1.6 -9.8835
89 2 38.4 6.4 0 -9.88769
90 2 40 8 1.6 -9.93492
91 4 41.6 6.4 0 -13.3737
92 2 43.2 8 1.6 -9.84187
93 4 44.8 6.4 0 -13.351
94 3 46.4 8 1.6 -11.2021
95 1 48 6.4 0 -11.8258
96 3 49.6 8 1.6 -11.199
97 4 0 9.6 0 -13.3784
98 2 1.6 11.2 1.6 -9.89279
99 2 3.2 9.6 0 -9.88387
100 2 4.8 11.2 1.6 -9.8848
101 2 6.4 9.6 0 -9.88507
102 2 8 11.2 1.6 -9.8985
103 3 9.6 9.6 0 -11.3231
104 2 11.2 11.2 1.6 -9.88829
105 3 12.8 9.6 0 -11.3574
106 4 14.4 11.2 1.6 -13.3688
107 3 16 9.6 0 -11.3875
108 4 17.6 11.2 1.6 -13.4227
109 2 19.2 9.6 0 -9.92086
110 2 20.8 11.2 1.6 -9.90794
111 4 22.4 9.6 0 -13.3289
112 2 24 11.2 1.6 -9.84034
113 1 25.6 9.6 0 -11.7502
114 4 27.2 11.2 1.6 -13.351
115 2 28.8 9.6 0 -9.84064
116 4 30.4 11.2 1.6 -13.2998
117 2 32 9.6 0 -9.89144
118 1 33.6 11.2 1.6 -11.8409
119 2 35.2 9.6 0 -9.89013
120 2 36.8 11.2 1.6 -9.87891
121 2 38.4 9.6 0 -9.90364
122 2 40 11.2 1.6 -9.93484
123 2 41.6 9.6 0 -9.87509
124 2 43.2 11.2 1.6 -9.87829
125 1 44.8 9.6 0 -11.7558
126 2 46.4 11.2 1.6 -9.80387
127 1 48 9.6 0 -11.7658
128 4 49.6 11.2 1.6 -13.3343
129 2 0 12.8 0 -9.9103
130 2 1.6 14.4 1.6 -9.90651
131 2 3.2 12.8 0 -9.89932
132 2 4.8 14.4 1.6 -9.91193
133 2 6.4 12.8 0 -9.92595
134 3 8 14.4 1.6 -11.3793
135 3 9.6 12.8 0 -11.4032
136 2 11.2 14.4 1.6 -9.90986
137 2 12.8 12.8 0 -9.85575
138 1 14.4 14.4 1.6 -11.8029
139 2 16 12.8 0 -9.8347
140 3 17.6 14.4 1.6 -11.3109
141 2 19.2 12.8 0 -9.93572
142 2 20.8 14.4 1.6 -9.9444
143 4 22.4 12.8 0 -13.4411
144 2 24 14.4 1.6 -9.85935
145 2 25.6 12.8 0 -9.85954
146 1 27.2 14.4 1.6 -11.8084
147 2 28.8 12.8 0 -9.84025
148 1 30.4 14.4 1.6 -11.8409
149 3 32 12.8 0 -11.2384
150 1 33.6 14.4 1.6 -11.8546
151 3 35.2 12.8 0 -11.331
152 1 36.8 14.4 1.6 -11.8857
153 3 38.4 12.8 0 -11.4076
154 4 40 14.4 1.6 -13.4042
155 2 41.6 12.8 0 -9.91301
156 2 43.2 14.4 1.6 -9.86028
157 2 44.8 12.8 0 -9.86513
158 4 46.4 14.4 1.6 -13.4123
159 3 48 12.8 0 -11.2664
160 2 49.6 14.4 1.6 -9.88402
161 2 0 16 0 -9.80856
162 2 1.6 17.6 1.6 -9.87884
163 2 3.2 16 0 -9.89253
164 3 4.8 17.6 1.6 -11.3339
165 4 6.4 16 0 -13.3707
166 3 8 17.6 1.6 -11.1964
167 1 9.6 16 0 -11.7832
168 2 11.2 17.6 1.6 -9.83473
169 2 12.8 16 0 -9.78602
170 4 14.4 17.6 1.6 -13.3039
171 2 16 16 0 -9.81042
172 4 17.6 17.6 1.6 -13.447
173 2 19.2 16 0 -9.93751
174 2 20.8 17.6 1.6 -9.88589
175 4 22.4 16 0 -13.3332
176 2 24 17.6 1.6 -9.86104
177 2 25.6 16 0 -9.9072
178 4 27.2 17.6 1.6 -13.4232
179 3 28.8 16 0 -11.2652
180 1 30.4 17.6 1.6 -11.8521
181 3 32 16 0 -11.2039
182 1 33.6 17.6 1.6 -11.8918
183 3 35.2 16 0 -11.2758
184 4 36.8 17.6 1.6 -13.3628
185 3 38.4 16 0 -11.3055
186 1 40 17.6 1.6 -11.811
187 2 41.6 16 0 -9.81056
188 1 43.2 17.6 1.6 -11.8255
189 3 44.8 16 0 -11.3199
190 2 46.4 17.6 1.6 -9.87167
191 2 48 16 0 -9.91188
192 2 49.6 17.6 1.6 -9.87856
193 2 0 19.2 0 -9.83429
194 2 1.6 20.8 1.6 -9.87527
195 2 3.2 19.2 0 -9.93376
196 2 4.8 20.8 1.6 -9.93699
197 4 6.4 19.2 0 -13.3783
198 3 8 20.8 1.6 -11.2753
199 1 9.6 19.2 0 -11.7726
200 3 11.2 20.8 1.6 -11.3534
201 2 12.8 19.2 0 -9.87181
202 2 14.4 20.8 1.6 -9.91724
203 2 16 19.2 0 -9.9054
204 2 17.6 20.8 1.6 -9.94332
205 2 19.2 19.2 0 -9.89589
206 3 20.8 20.8 1.6 -11.2882
207 1 22.4 19.2 0 -11.7459
208 2 24 20.8 1.6 -9.83456
209 2 25.6 19.2 0 -9.89352
210 2 27.2 20.8 1.6 -9.92897
211 2 28.8 19.2 0 -9.85941
212 1 30.4 20.8 1.6 -11.777
213 3 32 19.2 0 -11.1648
214 1 33.6 20.8 1.6 -11.7951
215 3 35.2 19.2 0 -11.2756
216 1 36.8 20.8 1.6 -11.8556
217 3 38.4 19.2 0 -11.2756
218 1 40 20.8 1.6 -11.8414
219 3 41.6 19.2 0 -11.1639
220 1 43.2 20.8 1.6 -11.8125
221 2 44.8 19.2 0 -9.83204
222 1 46.4 20.8 1.6 -11.8094
223 2 48 19.2 0 -9.86884
224 2 49.6 20.8 1.6 -9.84953
225 3 0 22.4 0 -11.2983
226 4 1.6 24 1.6 -13.2792
227 2 3.2 22.4 0 -9.8771
228 3 4.8 24 1.6 -11.2258
229 1 6.4 22.4 0 -11.8465
230 3 8 24 1.6 -11.3092
231 1 9.6 22.4 0 -11.8127
232 3 11.2 24 1.6 -11.4077
233 4 12.8 22.4 0 -13.37
234 4 14.4 24 1.6 -13.445
235 2 16 22.4 0 -9.86276
236 2 17.6 24 1.6 -9.88791
237 1 19.2 22.4 0 -11.8365
238 2 20.8 24 1.6 -9.75297
239 1 22.4 22.4 0 -11.7276
240 2 24 24 1.6 -9.7769
241 2 25.6 22.4 0 -9.90635
242 3 27.2 24 1.6 -11.4292
243 2 28.8 22.4 0 -9.91999
244 2 30.4 24 1.6 -9.88248
245 2 32 22.4 0 -9.85594
246 1 33.6 24 1.6 -11.8181
247 3 35.2 22.4 0 -11.3035
248 1 36.8 24 1.6 -11.8322
249 3 38.4 22.4 0 -11.2397
250 1 40 24 1.6 -11.7801
251 3 41.6 22.4 0 -11.2042
252 1 43.2 24 1.6 -11.8178
253 3 44.8 22.4 0 -11.201
254 4 46.4 24 1.6 -13.3205
255 3 48 22.4 0 -11.274
256 1 49.6 24 1.6 -11.8511
257 3 0 25.6 0 -11.3266
259 2 3.2 25.6 0 -9.84464
261 1 6.4 25.6 0 -11.8556
263 4 9.6 25.6 0 -13.4053
265 2 12.8 25.6 0 -9.90265
267 2 16 25.6 0 -9.88915
269 4 19.2 25.6 0 -13.2875
271 1 22.4 25.6 0 -11.7419
273 2 25.6 25.6 0 -9.84824
275 3 28.8 25.6 0 -11.3992
277 3 32 25.6 0 -11.3263
279 3 35.2 25.6 0 -11.3212
281 2 38.4 25.6 0 -9.83301
283 2 41.6 25.6 0 -9.82961
285 3 44.8 25.6 0 -11.3282
287 3 48 25.6 0 -11.3584
258 1 1.6 27.2 1.6 -11.731
289 2 0 28.8 0 -9.91888
260 3 4.8 27.2 1.6 -11.2667
291 2 3.2 28.8 0 -9.85151
262 3 8 27.2 1.6 -11.3073
293 1 6.4 28.8 0 -11.8413
264 3 11.2 27.2 1.6 -11.3541
295 1 9.6 28.8 0 -11.8688
266 2 14.4 27.2 1.6 -9.8521
297 1 12.8 28.8 0 -11.7269
268 2 17.6 27.2 1.6 -9.81278
299 1 16 28.8 0 -11.7077
270 2 20.8 27.2 1.6 -9.6855
301 1 19.2 28.8 0 -11.7432
272 2 24 27.2 1.6 -9.78274
303 1 22.4 28.8 0 -11.7722
305 4 25.6 28.8 0 -13.3792
274 2 27.2 27.2 1.6 -9.89097
307 3 28.8 28.8 0 -11.2647
276 1 30.4 27.2 1.6 -11.8312
309 3 32 28.8 0 -11.2051
278 1 33.6 27.2 1.6 -11.8284
311 2 35.2 28.8 0 -9.90239
280 2 36.8 27.2 1.6 -9.82873
313 2 38.4 28.8 0 -9.90688
282 1 40 27.2 1.6 -11.7895
315 3 41.6 28.8 0 -11.3139
284 4 43.2 27.2 1.6 -13.3999
317 2 44.8 28.8 0 -9.9563
286 2 46.4 27.2 1.6 -9.92244
319 4 48 28.8 0 -13.3862
288 2 49.6 27.2 1.6 -9.88728
290 2 1.6 30.4 1.6 -9.8139
321 1 0 32 0 -11.828
292 2 4.8 30.4 1.6 -9.80521
323 1 3.2 32 0 -11.8269
294 3 8 30.4 1.6 -11.3282
325 1 6.4 32 0 -11.8116
296 3 11.2 30.4 1.6 -11.3587
327 1 9.6 32 0 -11.8675
298 2 14.4 30.4 1.6 -9.80775
329 1 12.8 32 0 -11.7818
300 3 17.6 30.4 1.6 -11.1888
331 1 16 32 0 -11.761
302 3 20.8 30.4 1.6 -11.2013
333 1 19.2 32 0 -11.7571
304 3 24 30.4 1.6 -11.2899
335 2 22.4 32 0 -9.84094
337 2 25.6 32 0 -9.90518
306 2 27.2 30.4 1.6 -9.89894
339 2 28.8 32 0 -9.91233
308 1 30.4 30.4 1.6 -11.826
341 3 32 32 0 -11.2384
310 1 33.6 30.4 1.6 -11.8102
343 3 35.2 32 0 -11.3323
312 2 36.8 30.4 1.6 -9.84865
345 2 38.4 32 0 -9.89354
314 1 40 30.4 1.6 -11.7653
347 2 41.6 32 0 -9.88636
316 1 43.2 30.4 1.6 -11.855
349 2 44.8 32 0 -9.87648
318 3 46.4 30.4 1.6 -11.3345
351 1 48 32 0 -11.7765
320 3 49.6 30.4 1.6 -11.2624
322 3 1.6 33.6 1.6 -11.3567
353 3 0 35.2 0 -11.4195
324 3 4.8 33.6 1.6 -11.1988
355 4 3.2 35.2 0 -13.417
326 3 8 33.6 1.6 -11.3376
357 1 6.4 35.2 0 -11.8555
328 3 11.2 33.6 1.6 -11.3809
359 1 9.6 35.2 0 -11.8273
330 2 14.4 33.6 1.6 -9.86236
361 1 12.8 35.2 0 -11.8377
332 2 17.6 33.6 1.6 -9.84078
363 2 16 35.2 0 -9.87354
334 2 20.8 33.6 1.6 -9.81726
365 2 19.2 35.2 0 -9.84542
336 4 24 33.6 1.6 -13.2758
367 2 22.4 35.2 0 -9.86924
369 3 25.6 35.2 0 -11.3385
338 2 27.2 33.6 1.6 -9.88213
371 3 28.8 35.2 0 -11.4532
340 2 30.4 33.6 1.6 -9.86871
373 3 32 35.2 0 -11.3908
342 1 33.6 33.6 1.6 -11.8444
375 3 35.2 35.2 0 -11.3035
344 4 36.8 33.6 1.6 -13.3466
377 4 38.4 35.2 0 -13.3472
346 2 40 33.6 1.6 -9.87053
379 2 41.6 35.2 0 -9.89353
348 4 43.2 33.6 1.6 -13.3706
381 2 44.8 35.2 0 -9.86162
350 2 46.4 33.6 1.6 -9.91371
383 4 48 35.2 0 -13.4077
352 3 49.6 33.6 1.6 -11.3514
354 3 1.6 36.8 1.6 -11.4179
385 4 0 38.4 0 -13.4171
356 3 4.8 36.8 1.6 -11.2729
387 1 3.2 38.4 0 -11.8835
358 3 8 36.8 1.6 -11.3003
389 1 6.4 38.4 0 -11.8417
360 2 11.2 36.8 1.6 -9.90114
391 1 9.6 38.4 0 -11.7919
362 4 14.4 36.8 1.6 -13.4169
393 2 12.8 38.4 0 -9.91386
364 1 17.6 36.8 1.6 -11.8172
395 3 16 38.4 0 -11.4141
366 2 20.8 36.8 1.6 -9.84962
397 3 19.2 38.4 0 -11.3017
368 2 24 36.8 1.6 -9.86774
399 2 22.4 38.4 0 -9.84202
401 3 25.6 38.4 0 -11.4067
370 2 27.2 36.8 1.6 -9.93277
403 2 28.8 38.4 0 -9.95849
372 2 30.4 36.8 1.6 -9.89982
405 3 32 38.4 0 -11.3837
374 1 33.6 36.8 1.6 -11.8543
407 3 35.2 38.4 0 -11.3546
376 1 36.8 36.8 1.6 -11.7786
409 2 38.4 38.4 0 -9.87955
378 2 40 36.8 1.6 -9.86731
411 2 41.6 38.4 0 -9.93692
380 2 43.2 36.8 1.6 -9.90442
413 4 44.8 38.4 0 -13.4029
382 2 46.4 36.8 1.6 -9.86524
415 1 48 38.4 0 -11.8568
384 3 49.6 36.8 1.6 -11.4397
386 3 1.6 40 1.6 -11.336
417 1 0 41.6 0 -11.8414
388 3 4.8 40 1.6 -11.3268
419 4 3.2 41.6 0 -13.3832
390 2 8 40 1.6 -9.85959
421 1 6.4 41.6 0 -11.8013
392 2 11.2 40 1.6 -9.88598
423 1 9.6 41.6 0 -11.7591
394 4 14.4 40 1.6 -13.4197
425 2 12.8 41.6 0 -9.9077
396 4 17.6 40 1.6 -13.402
427 3 16 41.6 0 -11.3641
398 1 20.8 40 1.6 -11.8263
429 3 19.2 41.6 0 -11.3073
400 1 24 40 1.6 -11.8474
431 3 22.4 41.6 0 -11.2397
433 3 25.6 41.6 0 -11.3638
402 4 27.2 40 1.6 -13.3464
435 2 28.8 41.6 0 -9.91541
404 1 30.4 40 1.6 -11.8354
437 2 32 41.6 0 -9.88912
406 1 33.6 40 1.6 -11.83
439 2 35.2 41.6 0 -9.91144
408 1 36.8 40 1.6 -11.7834
441 3 38.4 41.6 0 -11.3461
410 1 40 40 1.6 -11.8325
443 3 41.6 41.6 0 -11.4202
412 3 43.2 40 1.6 -11.3141
445 1 44.8 41.6 0 -11.8958
414 3 46.4 40 1.6 -11.2405
447 1 48 41.6 0 -11.8554
416 3 49.6 40 1.6 -11.2384
418 2 1.6 43.2 1.6 -9.86113
449 1 0 44.8 0 -11.828
420 2 4.8 43.2 1.6 -9.88596
451 4 3.2 44.8 0 -13.3597
422 2 8 43.2 1.6 -9.83438
453 1 6.4 44.8 0 -11.7918
424 3 11.2 43.2 1.6 -11.2175
455 1 9.6 44.8 0 -11.743
426 1 14.4 43.2 1.6 -11.8493
457 2 12.8 44.8 0 -9.89199
428 1 17.6 43.2 1.6 -11.8706
459 3 16 44.8 0 -11.4123
430 1 20.8 43.2 1.6 -11.8136
461 3 19.2 44.8 0 -11.3606
432 1 24 43.2 1.6 -11.841
463 3 22.4 44.8 0 -11.3023
465 3 25.6 44.8 0 -11.3889
434 1 27.2 43.2 1.6 -11.8491
467 2 28.8 44.8 0 -9.89055
436 2 30.4 43.2 1.6 -9.84
469 2 32 44.8 0 -9.94484
438 4 33.6 43.2 1.6 -13.402
471 2 35.2 44.8 0 -9.85322
440 2 36.8 43.2 1.6 -9.90498
473 1 38.4 44.8 0 -11.7824
442 3 40 43.2 1.6 -11.3395
475 2 41.6 44.8 0 -9.91452
444 2 43.2 43.2 1.6 -9.92236
477 2 44.8 44.8 0 -9.78754
446 3 46.4 43.2 1.6 -11.274
479 1 48 44.8 0 -11.8678
448 3 49.6 43.2 1.6 -11.1645
450 3 1.6 46.4 1.6 -11.2348
481 1 0 48 0 -11.8555
452 2 4.8 46.4 1.6 -9.83734
483 1 3.2 48 0 -11.7959
454 2 8 46.4 1.6 -9.83999
485 1 6.4 48 0 -11.7894
456 1 11.2 46.4 1.6 -11.7524
487 2 9.6 48 0 -9.80621
458 4 14.4 46.4 1.6 -13.3589
489 3 12.8 48 0 -11.3772
460 2 17.6 46.4 1.6 -9.94626
491 2 16 48 0 -9.95782
462 2 20.8 46.4 1.6 -9.86245
493 2 19.2 48 0 -9.89869
464 2 24 46.4 1.6 -9.85677
495 2 22.4 48 0 -9.84149
497 2 25.6 48 0 -9.8663
466 2 27.2 46.4 1.6 -9.8946
499 1 28.8 48 0 -11.803
468 2 30.4 46.4 1.6 -9.90775
501 2 32 48 0 -9.9044
470 2 33.6 46.4 1.6 -9.89211
503 2 35.2 48 0 -9.97587
472 4 36.8 46.4 1.6 -13.3952
505 2 38.4 48 0 -9.87359
474 2 40 46.4 1.6 -9.92753
507 2 41.6 48 0 -9.90199
476 2 43.2 46.4 1.6 -9.89085
509 1 44.8 48 0 -11.7894
478 3 46.4 46.4 1.6 -11.3363
511 1 48 48 0 -11.8677
480 3 49.6 46.4 1.6 -11.274
482 3 1.6 49.6 1.6 -11.2381
484 2 4.8 49.6 1.6 -9.77899
486 2 8 49.6 1.6 -9.82019
488 2 11.2 49.6 1.6 -9.80676
490 2 14.4 49.6 1.6 -9.90379
492 2 17.6 49.6 1.6 -9.86055
494 2 20.8 49.6 1.6 -9.81457
496 2 24 49.6 1.6 -9.85524
498 2 27.2 49.6 1.6 -9.97262
500 3 30.4 49.6 1.6 -11.4757
502 2 33.6 49.6 1.6 -9.93687
504 2 36.8 49.6 1.6 -9.91345
506 2 40 49.6 1.6 -9.97276
508 3 43.2 49.6 1.6 -11.2919
510 3 46.4 49.6 1.6 -11.3083
512 3 49.6 49.6 1.6 -11.3392
513 1 0 0 3.2 -11.8553
514 3 1.6 1.6 4.8 -11.2753
515 1 3.2 0 3.2 -11.8273
516 3 4.8 1.6 4.8 -11.3978
517 4 6.4 0 3.2 -13.383
518 3 8 1.6 4.8 -11.3792
519 1 9.6 0 3.2 -11.7558
520 3 11.2 1.6 4.8 -11.3181
521 1 12.8 0 3.2 -11.7933
522 2 14.4 1.6 4.8 -9.86699
523 4 16 0 3.2 -13.3187
524 3 17.6 1.6 4.8 -11.2678
525 1 19.2 0 3.2 -11.7824
526 3 20.8 1.6 4.8 -11.3342
527 1 22.4 0 3.2 -11.8183
528 3 24 1.6 4.8 -11.3677
529 2 25.6 0 3.2 -9.89773
530 3 27.2 1.6 4.8 -11.3846
531 3 28.8 0 3.2 -11.4791
532 2 30.4 1.6 4.8 -9.8926
533 3 32 0 3.2 -11.3703
534 1 33.6 1.6 4.8 -11.724
535 2 35.2 0 3.2 -9.85484
536 1 36.8 1.6 4.8 -11.7286
537 2 38.4 0 3.2 -9.84235
538 2 40 1.6 4.8 -9.87027
539 1 41.6 0 3.2 -11.8269
540 2 43.2 1.6 4.8 -9.77562
541 1 44.8 0 3.2 -11.7955
542 3 46.4 1.6 4.8 -11.2394
543 1 48 0 3.2 -11.8679
544 3 49.6 1.6 4.8 -11.2753
545 1 0 3.2 3.2 -11.8557
546 3 1.6 4.8 4.8 -11.2756
547 1 3.2 3.2 3.2 -11.8416
548 3 4.8 4.8 4.8 -11.3344
549 2 6.4 3.2 3.2 -9.90836
550 3 8 4.8 4.8 -11.3407
551 3 9.6 3.2 3.2 -11.3887
552 2 11.2 4.8 4.8 -9.90895
553 3 12.8 3.2 3.2 -11.4007
554 2 14.4 4.8 4.8 -9.79994
555 4 16 3.2 3.2 -13.4275
556 2 17.6 4.8 4.8 -9.88419
557 2 19.2 3.2 3.2 -9.86374
558 3 20.8 4.8 4.8 -11.3826
559 2 22.4 3.2 3.2 -9.8341
560 3 24 4.8 4.8 -11.3366
561 4 25.6 3.2 3.2 -13.3995
562 3 27.2 4.8 4.8 -11.297
563 1 28.8 3.2 3.2 -11.7939
564 2 30.4 4.8 4.8 -9.89213
565 4 32 3.2 3.2 -13.349
566 2 33.6 4.8 4.8 -9.91179
567 2 35.2 3.2 3.2 -9.8406
568 2 36.8 4.8 4.8 -9.86256
569 2 38.4 3.2 3.2 -9.919
570 2 40 4.8 4.8 -9.91479
571 4 41.6 3.2 3.2 -13.4142
572 3 43.2 4.8 4.8 -11.2661
573 4 44.8 3.2 3.2 -13.3787
574 3 46.4 4.8 4.8 -11.3084
575 1 48 3.2 3.2 -11.8555
576 3 49.6 4.8 4.8 -11.3086
577 1 0 6.4 3.2 -11.8555
578 3 1.6 8 4.8 -11.2764
579 1 3.2 6.4 3.2 -11.8134
580 3 4.8 8 4.8 -11.3321
581 2 6.4 6.4 3.2 -9.85674
582 2 8 8 4.8 -9.86531
583 2 9.6 6.4 3.2 -9.90928
584 4 11.2 8 4.8 -13.2748
585 3 12.8 6.4 3.2 -11.3253
586 1 14.4 8 4.8 -11.7755
587 3 16 6.4 3.2 -11.2649
588 1 17.6 8 4.8 -11.8105
589 2 19.2 6.4 3.2 -9.88193
590 2 20.8 8 4.8 -9.78559
591 1 22.4 6.4 3.2 -11.7903
592 3 24 8 4.8 -11.1577
593 1 25.6 6.4 3.2 -11.7919
594 2 27.2 8 4.8 -9.9157
595 4 28.8 6.4 3.2 -13.3482
596 2 30.4 8 4.8 -9.91494
597 2 32 6.4 3.2 -9.93049
598 3 33.6 8 4.8 -11.4482
599 2 35.2 6.4 3.2 -9.89298
600 2 36.8 8 4.8 -9.87303
601 2 38.4 6.4 3.2 -9.86128
602 3 40 8 4.8 -11.264
603 4 41.6 6.4 3.2 -13.3748
604 2 43.2 8 4.8 -9.81303
605 1 44.8 6.4 3.2 -11.826
606 3 46.4 8 4.8 -11.268
607 1 48 6.4 3.2 -11.8554
608 3 49.6 8 4.8 -11.2701
609 4 0 9.6 3.2 -13.306
610 3 1.6 11.2 4.8 -11.2363
611 1 3.2 9.6 3.2 -11.8334
612 3 4.8 11.2 4.8 -11.2698
613 2 6.4 9.6 3.2 -9.85585
614 2 8 11.2 4.8 -9.87338
615 2 9.6 9.6 3.2 -9.86817
616 1 11.2 11.2 4.8 -11.7502
617 3 12.8 9.6 3.2 -11.3299
618 1 14.4 11.2 4.8 -11.8215
619 3 16 9.6 3.2 -11.3054
620 1 17.6 11.2 4.8 -11.7893
621 2 19.2 9.6 3.2 -9.84065
622 2 20.8 11.2 4.8 -9.85929
623 1 22.4 9.6 3.2 -11.7543
624 2 24 11.2 4.8 -9.84184
625 2 25.6 9.6 3.2 -9.78665
626 2 27.2 11.2 4.8 -9.85393
627 2 28.8 9.6 3.2 -9.91358
628 1 30.4 11.2 4.8 -11.8258
629 3 32 9.6 3.2 -11.3594
630 2 33.6 11.2 4.8 -9.90632
631 1 35.2 9.6 3.2 -11.8187
632 3 36.8 11.2 4.8 -11.3133
633 1 38.4 9.6 3.2 -11.8194
634 3 40 11.2 4.8 -11.4111
635 2 41.6 9.6 3.2 -9.84004
636 2 43.2 11.2 4.8 -9.90621
637 1 44.8 9.6 3.2 -11.751
638 2 46.4 11.2 4.8 -9.83898
639 1 48 9.6 3.2 -11.7307
640 4 49.6 11.2 4.8 -13.2889
641 2 0 12.8 3.2 -9.83354
642 3 1.6 14.4 4.8 -11.3177
643 1 3.2 12.8 3.2 -11.8175
644 3 4.8 14.4 4.8 -11.3286
645 1 6.4 12.8 3.2 -11.8189
646 3 8 14.4 4.8 -11.3503
647 2 9.6 12.8 3.2 -9.92322
648 2 11.2 14.4 4.8 -9.91521
649 3 12.8 12.8 3.2 -11.3764
650 2 14.4 14.4 4.8 -9.85136
651 3 16 12.8 3.2 -11.3874
652 4 17.6 14.4 4.8 -13.4197
653 2 19.2 12.8 3.2 -9.94364
654 2 20.8 14.4 4.8 -9.90419
655 2 22.4 12.8 3.2 -9.87199
656 4 24 14.4 4.8 -13.3417
657 2 25.6 12.8 3.2 -9.91144
658 2 27.2 14.4 4.8 -9.84569
659 3 28.8 12.8 3.2 -11.2887
660 4 30.4 14.4 4.8 -13.3518
661 3 32 12.8 3.2 -11.3697
662 4 33.6 14.4 4.8 -13.4524
663 3 35.2 12.8 3.2 -11.3166
664 4 36.8 14.4 4.8 -13.418
665 2 38.4 12.8 3.2 -9.93716
666 2 40 14.4 4.8 -9.90548
667 2 41.6 12.8 3.2 -9.96656
668 2 43.2 14.4 4.8 -9.91881
669 2 44.8 12.8 3.2 -9.90305
670 1 46.4 14.4 4.8 -11.829
671 2 48 12.8 3.2 -9.86997
672 2 49.6 14.4 4.8 -9.8763
673 4 0 16 3.2 -13.358
674 1 1.6 17.6 4.8 -11.733
675 2 3.2 16 3.2 -9.85997
676 4 4.8 17.6 4.8 -13.376
677 1 6.4 16 3.2 -11.8038
678 2 8 17.6 4.8 -9.80874
679 1 9.6 16 3.2 -11.7898
680 2 11.2 17.6 4.8 -9.88228
681 2 12.8 16 3.2 -9.90501
682 2 14.4 17.6 4.8 -9.88609
683 2 16 16 3.2 -9.93335
684 2 17.6 17.6 4.8 -9.92318
685 2 19.2 16 3.2 -9.94966
686 3 20.8 17.6 4.8 -11.3592
687 4 22.4 16 3.2 -13.3467
688 3 24 17.6 4.8 -11.257
689 2 25.6 16 3.2 -9.90261
690 2 27.2 17.6 4.8 -9.9321
691 3 28.8 16 3.2 -11.386
692 2 30.4 17.6 4.8 -9.9208
693 3 32 16 3.2 -11.3883
694 3 33.6 17.6 4.8 -11.3467
695 3 35.2 16 3.2 -11.4264
696 1 36.8 17.6 4.8 -11.8515
697 3 38.4 16 3.2 -11.2978
698 1 40 17.6 4.8 -11.8036
699 2 41.6 16 3.2 -9.88583
700 4 43.2 17.6 4.8 -13.3914
701 3 44.8 16 3.2 -11.3746
702 4 46.4 17.6 4.8 -13.4192
703 2 48 16 3.2 -9.91308
704 4 49.6 17.6 4.8 -13.3004
705 4 0 19.2 3.2 -13.3266
706 2 1.6 20.8 4.8 -9.86968
707 2 3.2 19.2 3.2 -9.84309
708 3 4.8 20.8 4.8 -11.2582
709 1 6.4 19.2 3.2 -11.8015
710 3 8 20.8 4.8 -11.2741
711 1 9.6 19.2 3.2 -11.7818
712 3 11.2 20.8 4.8 -11.3837
713 2 12.8 19.2 3.2 -9.92582
714 4 14.4 20.8 4.8 -13.387
715 2 16 19.2 3.2 -9.92849
716 2 17.6 20.8 4.8 -9.85772
717 2 19.2 19.2 3.2 -9.90398
718 3 20.8 20.8 4.8 -11.2971
719 1 22.4 19.2 3.2 -11.8277
720 3 24 20.8 4.8 -11.2336
721 2 25.6 19.2 3.2 -9.89566
722 2 27.2 20.8 4.8 -9.89726
723 3 28.8 19.2 3.2 -11.3995
724 4 30.4 20.8 4.8 -13.4184
725 3 32 19.2 3.2 -11.3834
726 4 33.6 20.8 4.8 -13.4476
727 3 35.2 19.2 3.2 -11.3654
728 1 36.8 20.8 4.8 -11.8274
729 3 38.4 19.2 3.2 -11.2761
730 1 40 20.8 4.8 -11.8417
731 3 41.6 19.2 3.2 -11.3026
732 2 43.2 20.8 4.8 -9.90102
733 3 44.8 19.2 3.2 -11.3489
734 2 46.4 20.8 4.8 -9.85385
735 2 48 19.2 3.2 -9.91237
736 2 49.6 20.8 4.8 -9.89226
737 2 0 22.4 3.2 -9.88225
738 2 1.6 24 4.8 -9.77181
739 1 3.2 22.4 3.2 -11.754
740 2 4.8 24 4.8 -9.74143
741 4 6.4 22.4 3.2 -13.3126
742 3 8 24 4.8 -11.2693
743 1 9.6 22.4 3.2 -11.8818
744 3 11.2 24 4.8 -11.3998
745 2 12.8 22.4 3.2 -9.92953
746 4 14.4 24 4.8 -13.3821
747 2 16 22.4 3.2 -9.87817
748 2 17.6 24 4.8 -9.81735
749 2 19.2 22.4 3.2 -9.82447
750 3 20.8 24 4.8 -11.2397
751 1 22.4 22.4 3.2 -11.7963
752 3 24 24 4.8 -11.2033
753 4 25.6 22.4 3.2 -13.4023
754 3 27.2 24 4.8 -11.3741
755 2 28.8 22.4 3.2 -9.94568
756 2 30.4 24 4.8 -9.92987
757 2 32 22.4 3.2 -9.86432
758 2 33.6 24 4.8 -9.87443
759 3 35.2 22.4 3.2 -11.2696
760 1 36.8 24 4.8 -11.8414
761 3 38.4 22.4 3.2 -11.2423
762 1 40 24 4.8 -11.814
763 3 41.6 22.4 3.2 -11.3016
764 2 43.2 24 4.8 -9.86321
765 2 44.8 22.4 3.2 -9.88731
766 4 46.4 24 4.8 -13.4059
767 2 48 22.4 3.2 -9.8904
768 2 49.6 24 4.8 -9.87409
769 2 0 25.6 3.2 -9.86256
771 1 3.2 25.6 3.2 -11.6861
773 1 6.4 25.6 3.2 -11.7989
775 1 9.6 25.6 3.2 -11.873
777 3 12.8 25.6 3.2 -11.3554
779 2 16 25.6 3.2 -9.92093
781 1 19.2 25.6 3.2 -11.7498
783 1 22.4 25.6 3.2 -11.7172
785 1 25.6 25.6 3.2 -11.8338
787 2 28.8 25.6 3.2 -9.92513
789 2 32 25.6 3.2 -9.911
791 2 35.2 25.6 3.2 -9.91684
793 3 38.4 25.6 3.2 -11.2013
795 3 41.6 25.6 3.2 -11.267
797 2 44.8 25.6 3.2 -9.95095
799 2 48 25.6 3.2 -9.85596
770 2 1.6 27.2 4.8 -9.85961
801 2 0 28.8 3.2 -9.85973
772 3 4.8 27.2 4.8 -11.2296
803 4 3.2 28.8 3.2 -13.3313
774 2 8 27.2 4.8 -9.86523
805 1 6.4 28.8 3.2 -11.8421
776 4 11.2 27.2 4.8 -13.3933
807 2 9.6 28.8 3.2 -9.82789
778 2 14.4 27.2 4.8 -9.92464
809 1 12.8 28.8 3.2 -11.8167
780 2 17.6 27.2 4.8 -9.8495
811 2 16 28.8 3.2 -9.87602
782 3 20.8 27.2 4.8 -11.1657
813 1 19.2 28.8 3.2 -11.7561
784 3 24 27.2 4.8 -11.2641
815 1 22.4 28.8 3.2 -11.8095
817 2 25.6 28.8 3.2 -9.84992
786 2 27.2 27.2 4.8 -9.91439
819 2 28.8 28.8 3.2 -9.90935
788 4 30.4 27.2 4.8 -13.4214
821 3 32 28.8 3.2 -11.2961
790 3 33.6 27.2 4.8 -11.2965
823 3 35.2 28.8 3.2 -11.3259
792 1 36.8 27.2 4.8 -11.862
825 2 38.4 28.8 3.2 -9.80616
794 1 40 27.2 4.8 -11.7969
827 3 41.6 28.8 3.2 -11.2977
796 4 43.2 27.2 4.8 -13.499
829 3 44.8 28.8 3.2 -11.4367
798 3 46.4 27.2 4.8 -11.2964
831 1 48 28.8 3.2 -11.8166
800 2 49.6 27.2 4.8 -9.88506
802 3 1.6 30.4 4.8 -11.408
833 1 0 32 3.2 -11.8432
804 3 4.8 30.4 4.8 -11.2651
835 1 3.2 32 3.2 -11.7688
806 3 8 30.4 4.8 -11.3812
837 1 6.4 32 3.2 -11.8081
808 2 11.2 30.4 4.8 -9.94958
839 2 9.6 32 3.2 -9.89016
810 2 14.4 30.4 4.8 -9.88867
841 2 12.8 32 3.2 -9.89857
812 2 17.6 30.4 4.8 -9.87433
843 2 16 32 3.2 -9.86703
814 3 20.8 30.4 4.8 -11.166
845 1 19.2 32 3.2 -11.7621
816 3 24 30.4 4.8 -11.3262
847 1 22.4 32 3.2 -11.7402
849 1 25.6 32 3.2 -11.7571
818 2 27.2 30.4 4.8 -9.93029
851 2 28.8 32 3.2 -9.89908
820 2 30.4 30.4 4.8 -9.86108
853 2 32 32 3.2 -9.86391
822 1 33.6 30.4 4.8 -11.8158
855 3 35.2 32 3.2 -11.3316
824 1 36.8 30.4 4.8 -11.7703
857 2 38.4 32 3.2 -9.84307
826 1 40 30.4 4.8 -11.7735
859 2 41.6 32 3.2 -9.87025
828 2 43.2 30.4 4.8 -9.86811
861 3 44.8 32 3.2 -11.3178
830 2 46.4 30.4 4.8 -9.92208
863 1 48 32 3.2 -11.8079
832 2 49.6 30.4 4.8 -9.83487
834 3 1.6 33.6 4.8 -11.3376
865 4 0 35.2 3.2 -13.4319
836 2 4.8 33.6 4.8 -9.77999
867 1 3.2 35.2 3.2 -11.8242
838 3 8 33.6 4.8 -11.3811
869 1 6.4 35.2 3.2 -11.8409
840 2 11.2 33.6 4.8 -9.94765
871 4 9.6 35.2 3.2 -13.4796
842 1 14.4 33.6 4.8 -11.8396
873 3 12.8 35.2 3.2 -11.3347
844 2 17.6 33.6 4.8 -9.82838
875 2 16 35.2 3.2 -9.86655
846 2 20.8 33.6 4.8 -9.7831
877 2 19.2 35.2 3.2 -9.86132
848 2 24 33.6 4.8 -9.73304
879 4 22.4 35.2 3.2 -13.3036
881 1 25.6 35.2 3.2 -11.7328
850 2 27.2 33.6 4.8 -9.85677
883 2 28.8 35.2 3.2 -9.94934
852 2 30.4 33.6 4.8 -9.96932
885 2 32 35.2 3.2 -9.90613
854 4 33.6 33.6 4.8 -13.3684
887 3 35.2 35.2 3.2 -11.2696
856 4 36.8 33.6 4.8 -13.3935
889 2 38.4 35.2 3.2 -9.86057
858 2 40 33.6 4.8 -9.89445
891 2 41.6 35.2 3.2 -9.94041
860 4 43.2 33.6 4.8 -13.4241
893 4 44.8 35.2 3.2 -13.376
862 2 46.4 33.6 4.8 -9.8923
895 2 48 35.2 3.2 -9.82425
864 2 49.6 33.6 4.8 -9.92154
866 3 1.6 36.8 4.8 -11.3613
897 1 0 38.4 3.2 -11.8685
868 2 4.8 36.8 4.8 -9.88601
899 1 3.2 38.4 3.2 -11.8575
870 3 8 36.8 4.8 -11.3593
901 4 6.4 38.4 3.2 -13.4023
872 4 11.2 36.8 4.8 -13.4119
903 2 9.6 38.4 3.2 -9.88757
874 1 14.4 36.8 4.8 -11.8404
905 3 12.8 38.4 3.2 -11.389
876 1 17.6 36.8 4.8 -11.7903
907 3 16 38.4 3.2 -11.3035
878 2 20.8 36.8 4.8 -9.85466
909 3 19.2 38.4 3.2 -11.2977
880 3 24 36.8 4.8 -11.2798
911 2 22.4 38.4 3.2 -9.85875
913 2 25.6 38.4 3.2 -9.9062
882 2 27.2 36.8 4.8 -9.8863
915 2 28.8 38.4 3.2 -9.8834
884 2 30.4 36.8 4.8 -9.89714
917 3 32 38.4 3.2 -11.2655
886 1 33.6 36.8 4.8 -11.8037
919 3 35.2 38.4 3.2 -11.2051
888 1 36.8 36.8 4.8 -11.8032
921 2 38.4 38.4 3.2 -9.80828
890 2 40 36.8 4.8 -9.90715
923 2 41.6 38.4 3.2 -9.89272
892 2 43.2 36.8 4.8 -9.91142
925 1 44.8 38.4 3.2 -11.7937
894 2 46.4 36.8 4.8 -9.86988
927 1 48 38.4 3.2 -11.7839
896 3 49.6 36.8 4.8 -11.2924
898 3 1.6 40 4.8 -11.3432
929 1 0 41.6 3.2 -11.7859
900 2 4.8 40 4.8 -9.90748
931 2 3.2 41.6 3.2 -9.86788
902 2 8 40 4.8 -9.86098
933 2 6.4 41.6 3.2 -9.8774
904 1 11.2 40 4.8 -11.8618
935 2 9.6 41.6 3.2 -9.88747
906 1 14.4 40 4.8 -11.8554
937 3 12.8 41.6 3.2 -11.3269
908 1 17.6 40 4.8 -11.7996
939 3 16 41.6 3.2 -11.3046
910 1 20.8 40 4.8 -11.7392
941 3 19.2 41.6 3.2 -11.2371
912 2 24 40 4.8 -9.82274
943 3 22.4 41.6 3.2 -11.2006
945 3 25.6 41.6 3.2 -11.3097
914 1 27.2 40 4.8 -11.8044
947 3 28.8 41.6 3.2 -11.2369
916 1 30.4 40 4.8 -11.787
949 3 32 41.6 3.2 -11.2717
918 1 33.6 40 4.8 -11.8116
951 3 35.2 41.6 3.2 -11.2977
920 1 36.8 40 4.8 -11.8451
953 2 38.4 41.6 3.2 -9.88509
922 2 40 40 4.8 -9.80944
955 4 41.6 41.6 3.2 -13.3919
924 2 43.2 40 4.8 -9.88758
957 1 44.8 41.6 3.2 -11.7678
926 3 46.4 40 4.8 -11.2349
959 1 48 41.6 3.2 -11.8143
928 2 49.6 40 4.8 -9.86149
930 2 1.6 43.2 4.8 -9.83932
961 1 0 44.8 3.2 -11.7623
932 1 4.8 43.2 4.8 -11.7801
963 2 3.2 44.8 3.2 -9.84938
934 1 8 43.2 4.8 -11.7902
965 3 6.4 44.8 3.2 -11.3338
936 1 11.2 43.2 4.8 -11.8062
967 2 9.6 44.8 3.2 -9.84869
938 1 14.4 43.2 4.8 -11.8004
969 2 12.8 44.8 3.2 -9.84848
940 4 17.6 43.2 4.8 -13.2935
971 3 16 44.8 3.2 -11.3183
942 1 20.8 43.2 4.8 -11.7503
973 2 19.2 44.8 3.2 -9.90114
944 1 24 43.2 4.8 -11.8193
975 2 22.4 44.8 3.2 -9.8381
977 3 25.6 44.8 3.2 -11.2866
946 1 27.2 43.2 4.8 -11.8161
979 2 28.8 44.8 3.2 -9.91325
948 1 30.4 43.2 4.8 -11.8309
981 2 32 44.8 3.2 -9.86528
950 1 33.6 43.2 4.8 -11.8178
983 2 35.2 44.8 3.2 -9.91317
952 2 36.8 43.2 4.8 -9.80127
985 2 38.4 44.8 3.2 -9.84929
954 4 40 43.2 4.8 -13.3777
987 4 41.6 44.8 3.2 -13.3951
956 2 43.2 43.2 4.8 -9.85897
989 1 44.8 44.8 3.2 -11.8418
958 3 46.4 43.2 4.8 -11.3311
991 1 48 44.8 3.2 -11.8262
960 2 49.6 43.2 4.8 -9.8346
962 2 1.6 46.4 4.8 -9.84327
993 1 0 48 3.2 -11.8417
964 4 4.8 46.4 4.8 -13.407
995 1 3.2 48 3.2 -11.7957
966 2 8 46.4 4.8 -9.88304
997 2 6.4 48 3.2 -9.8621
968 2 11.2 46.4 4.8 -9.7973
999 4 9.6 48 3.2 -13.2924
970 1 14.4 46.4 4.8 -11.8282
1001 2 12.8 48 3.2 -9.8431
972 3 17.6 46.4 4.8 -11.3741
1003 2 16 48 3.2 -9.93008
974 2 20.8 46.4 4.8 -9.86522
1005 4 19.2 48 3.2 -13.371
976 2 24 46.4 4.8 -9.83534
1007 1 22.4 48 3.2 -11.7496
1009 1 25.6 48 3.2 -11.825
978 2 27.2 46.4 4.8 -9.91211
1011 2 28.8 48 3.2 -9.89874
980 4 30.4 46.4 4.8 -13.4285
1013 4 32 48 3.2 -13.4485
982 4 33.6 46.4 4.8 -13.3154
1015 2 35.2 48 3.2 -9.86456
984 2 36.8 46.4 4.8 -9.87698
1017 2 38.4 48 3.2 -9.95436
986 2 40 46.4 4.8 -9.91177
1019 2 41.6 48 3.2 -9.8512
988 3 43.2 46.4 4.8 -11.3142
1021 1 44.8 48 3.2 -11.8428
990 3 46.4 46.4 4.8 -11.3928
1023 2 48 48 3.2 -9.7644
992 2 49.6 46.4 4.8 -9.87241
994 3 1.6 49.6 4.8 -11.3351
996 3 4.8 49.6 4.8 -11.3142
998 2 8 49.6 4.8 -9.85609
1000 2 11.2 49.6 4.8 -9.81192
1002 2 14.4 49.6 4.8 -9.86602
1004 3 17.6 49.6 4.8 -11.361
1006 3 20.8 49.6 4.8 -11.2032
1008 3 24 49.6 4.8 -11.234
1010 3 27.2 49.6 4.8 -11.4803
1012 3 30.4 49.6 4.8 -11.4589
1014 1 33.6 49.6 4.8 -11.7507
1016 4 36.8 49.6 4.8 -13.3361
1018 3 40 49.6 4.8 -11.3114
1020 2 43.2 49.6 4.8 -9.77315
1022 3 46.4 49.6 4.8 -11.2707
1024 3 49.6 49.6 4.8 -11.3411
1025 1 0 0 6.4 -11.896
1026 3 1.6 1.6 8 -11.3936
1027 1 3.2 0 6.4 -11.8747
1028 3 4.8 1.6 8 -11.3515
1029 2 6.4 0 6.4 -9.84972
1030 2 8 1.6 8 -9.89135
1031 1 9.6 0 6.4 -11.8004
1032 3 11.2 1.6 8 -11.3334
1033 4 12.8 0 6.4 -13.3244
1034 3 14.4 1.6 8 -11.1976
1035 1 16 0 6.4 -11.8564
1036 3 17.6 1.6 8 -11.2764
1037 1 19.2 0 6.4 -11.8407
1038 3 20.8 1.6 8 -11.3078
1039 1 22.4 0 6.4 -11.8415
1040 3 24 1.6 8 -11.3337
1041 1 25.6 0 6.4 -11.8959
1042 3 27.2 1.6 8 -11.3293
1043 4 28.8 0 6.4 -13.4776
1044 2 30.4 1.6 8 -9.89042
1045 2 32 0 6.4 -9.90527
1046 2 33.6 1.6 8 -9.88246
1047 2 35.2 0 6.4 -9.75778
1048 2 36.8 1.6 8 -9.86843
1049 4 38.4 0 6.4 -13.3559
1050 3 40 1.6 8 -11.3329
1051 1 41.6 0 6.4 -11.7943
1052 3 43.2 1.6 8 -11.2736
1053 1 44.8 0 6.4 -11.7804
1054 3 46.4 1.6 8 -11.2426
1055 1 48 0 6.4 -11.841
1056 3 49.6 1.6 8 -11.2736
1057 4 0 3.2 6.4 -13.3634
1058 3 1.6 4.8 8 -11.3073
1059 1 3.2 3.2 6.4 -11.8813
1060 3 4.8 4.8 8 -11.2358
1061 1 6.4 3.2 6.4 -11.832
1062 2 8 4.8 8 -9.83223
1063 1 9.6 3.2 6.4 -11.8408
1064 3 11.2 4.8 8 -11.3503
1065 1 12.8 3.2 6.4 -11.7856
1066 2 14.4 4.8 8 -9.83662
1067 1 16 3.2 6.4 -11.7748
1068 3 17.6 4.8 8 -11.3284
1069 1 19.2 3.2 6.4 -11.8704
1070 3 20.8 4.8 8 -11.2391
1071 1 22.4 3.2 6.4 -11.8673
1072 3 24 4.8 8 -11.2362
1073 1 25.6 3.2 6.4 -11.8688
1074 3 27.2 4.8 8 -11.366
1075 1 28.8 3.2 6.4 -11.8307
1076 3 30.4 4.8 8 -11.2911
1077 2 32 3.2 6.4 -9.83061
1078 3 33.6 4.8 8 -11.3612
1079 2 35.2 3.2 6.4 -9.86216
1080 3 36.8 4.8 8 -11.3325
1081 2 38.4 3.2 6.4 -9.84447
1082 3 40 4.8 8 -11.3047
1083 4 41.6 3.2 6.4 -13.3557
1084 3 43.2 4.8 8 -11.2764
1085 1 44.8 3.2 6.4 -11.8438
1086 3 46.4 4.8 8 -11.2712
1087 1 48 3.2 6.4 -11.8696
1088 3 49.6 4.8 8 -11.3043
1089 1 0 6.4 6.4 -11.8695
1090 3 1.6 8 8 -11.2042
1091 1 3.2 6.4 6.4 -11.8411
1092 3 4.8 8 8 -11.2392
1093 1 6.4 6.4 6.4 -11.8445
1094 3 8 8 8 -11.2668
1095 4 9.6 6.4 6.4 -13.3118
1096 3 11.2 8 8 -11.3101
1097 1 12.8 6.4 6.4 -11.7433
1098 2 14.4 8 8 -9.89078
1099 2 16 6.4 6.4 -9.87449
1100 2 17.6 8 8 -9.83968
1101 2 19.2 6.4 6.4 -9.82999
1102 4 20.8 8 8 -13.2443
1103 1 22.4 6.4 6.4 -11.7651