ITEM: TIMESTEP
0
ITEM: NUMBER OF ATOMS
8192
ITEM: BOX BOUNDS pp pp pp
0.0000000000000000e+00 5.1200000000000003e+01
0.0000000000000000e+00 5.1200000000000003e+01
0.0000000000000000e+00 5.1200000000000003e+01
ITEM: ATOMS id type x y z c_eng
1 1 0 0 0 -11.8415
2 3 1.6 1.6 1.6 -11.2423
3 1 3.2 0 0 -11.8276
4 3 4.8 1.6 1.6 -11.3297
5 4 6.4 0 0 -13.3974
6 3 8 1.6 1.6 -11.3396
7 1 9.6 0 0 -11.8512
8 2 11.2 1.6 1.6 -9.8879
9 2 12.8 0 0 -9.87757
10 2 14.4 1.6 1.6 -9.86028
11 1 16 0 0 -11.7048
12 2 17.6 1.6 1.6 -9.81322
13 2 19.2 0 0 -9.85876
14 2 20.8 1.6 1.6 -9.96093
15 2 22.4 0 0 -9.91253
16 3 24 1.6 1.6 -11.3997
17 2 25.6 0 0 -9.85073
18 2 27.2 1.6 1.6 -9.91474
19 2 28.8 0 0 -9.89191
20 2 30.4 1.6 1.6 -9.86102
21 1 32 0 0 -11.7868
22 3 33.6 1.6 1.6 -11.2662
23 1 35.2 0 0 -11.8816
24 3 36.8 1.6 1.6 -11.3675
25 1 38.4 0 0 -11.8554
26 3 40 1.6 1.6 -11.2753
27 1 41.6 0 0 -11.8416
28 3 43.2 1.6 1.6 -11.2753
29 1 44.8 0 0 -11.8415
30 3 46.4 1.6 1.6 -11.3068
31 1 48 0 0 -11.8557
32 3 49.6 1.6 1.6 -11.2753
33 1 0 3.2 0 -11.8416
34 3 1.6 4.8 1.6 -11.2683
35 1 3.2 3.2 0 -11.8102
36 2 4.8 4.8 1.6 -9.81671
37 2 6.4 3.2 0 -9.84235
38 1 8 4.8 1.6 -11.7294
39 2 9.6 3.2 0 -9.83617
40 1 11.2 4.8 1.6 -11.7588
41 2 12.8 3.2 0 -9.92308
42 4 14.4 4.8 1.6 -13.3355
43 2 16 3.2 0 -9.85922
44 1 17.6 4.8 1.6 -11.8405
45 2 19.2 3.2 0 -9.94099
46 2 20.8 4.8 1.6 -9.92339
47 2 22.4 3.2 0 -9.94481
48 3 24 4.8 1.6 -11.3237
49 4 25.6 3.2 0 -13.3997
50 3 27.2 4.8 1.6 -11.2711
51 4 28.8 3.2 0 -13.3545
52 3 30.4 4.8 1.6 -11.27
53 1 32 3.2 0 -11.8275
54 3 33.6 4.8 1.6 -11.2381
55 1 35.2 3.2 0 -11.8555
56 3 36.8 4.8 1.6 -11.3073
57 1 38.4 3.2 0 -11.8554
58 3 40 4.8 1.6 -11.3392
59 1 41.6 3.2 0 -11.8678
60 3 43.2 4.8 1.6 -11.3389
61 1 44.8 3.2 0 -11.8555
62 3 46.4 4.8 1.6 -11.3068
63 1 48 3.2 0 -11.8554
64 3 49.6 4.8 1.6 -11.3392
65 2 0 6.4 0 -9.86825
66 3 1.6 8 1.6 -11.315
67 4 3.2 6.4 0 -13.3951
68 2 4.8 8 1.6 -9.86389
69 2 6.4 6.4 0 -9.88126
70 2 8 8 1.6 -9.86586
71 2 9.6 6.4 0 -9.81344
72 2 11.2 8 1.6 -9.87683
73 2 12.8 6.4 0 -9.89541
74 4 14.4 8 1.6 -13.4347
75 3 16 6.4 0 -11.3682
76 2 17.6 8 1.6 -9.91783
77 2 19.2 6.4 0 -9.93319
78 3 20.8 8 1.6 -11.3131
79 1 22.4 6.4 0 -11.7936
80 3 24 8 1.6 -11.2758
81 1 25.6 6.4 0 -11.8058
82 3 27.2 8 1.6 -11.3044
83 1 28.8 6.4 0 -11.7827
84 2 30.4 8 1.6 -9.89094
85 1 32 6.4 0 -11.8318
86 2 33.6 8 1.6 -9.84242
87 1 35.2 6.4 0 -11.8139
88 3 36.8 8 1.6 -11.2386
89 1 38.4 6.4 0 -11.8416
90 3 40 8 1.6 -11.3047
91 2 41.6 6.4 0 -9.80993
92 3 43.2 8 1.6 -11.3021
93 1 44.8 6.4 0 -11.8677
94 3 46.4 8 1.6 -11.2042
95 1 48 6.4 0 -11.8676
96 3 49.6 8 1.6 -11.3319
97 2 0 9.6 0 -9.91227
98 2 1.6 11.2 1.6 -9.90867
99 2 3.2 9.6 0 -9.87754
100 2 4.8 11.2 1.6 -9.80779
101 2 6.4 9.6 0 -9.86187
102 2 8 11.2 1.6 -9.88608
103 1 9.6 9.6 0 -11.8144
104 2 11.2 11.2 1.6 -9.9353
105 2 12.8 9.6 0 -9.87283
106 2 14.4 11.2 1.6 -9.84784
107 2 16 9.6 0 -9.93939
108 1 17.6 11.2 1.6 -11.8569
109 2 19.2 9.6 0 -9.89015
110 2 20.8 11.2 1.6 -9.8789
111 1 22.4 9.6 0 -11.8242
112 3 24 11.2 1.6 -11.3424
113 2 25.6 9.6 0 -9.82719
114 2 27.2 11.2 1.6 -9.94054
115 1 28.8 9.6 0 -11.8289
116 2 30.4 11.2 1.6 -9.88737
117 2 32 9.6 0 -9.82739
118 2 33.6 11.2 1.6 -9.93073
119 2 35.2 9.6 0 -9.82731
120 2 36.8 11.2 1.6 -9.88881
121 1 38.4 9.6 0 -11.8446
122 3 40 11.2 1.6 -11.343
123 4 41.6 9.6 0 -13.368
124 2 43.2 11.2 1.6 -9.85889
125 1 44.8 9.6 0 -11.8173
126 2 46.4 11.2 1.6 -9.83305
127 1 48 9.6 0 -11.8327
128 2 49.6 11.2 1.6 -9.83216
129 2 0 12.8 0 -9.879
130 1 1.6 14.4 1.6 -11.6811
131 2 3.2 12.8 0 -9.82991
132 1 4.8 14.4 1.6 -11.6881
133 2 6.4 12.8 0 -9.8824
134 2 8 14.4 1.6 -9.86174
135 3 9.6 12.8 0 -11.3073
136 2 11.2 14.4 1.6 -9.84716
137 4 12.8 12.8 0 -13.42
138 2 14.4 14.4 1.6 -9.90271
139 2 16 12.8 0 -9.89921
140 2 17.6 14.4 1.6 -9.87588
141 2 19.2 12.8 0 -9.91168
142 1 20.8 14.4 1.6 -11.801
143 2 22.4 12.8 0 -9.9125
144 2 24 14.4 1.6 -9.91565
145 2 25.6 12.8 0 -9.93821
146 2 27.2 14.4 1.6 -9.90178
147 4 28.8 12.8 0 -13.3606
148 2 30.4 14.4 1.6 -9.94706
149 4 32 12.8 0 -13.4164
150 3 33.6 14.4 1.6 -11.294
151 2 35.2 12.8 0 -9.96821
152 1 36.8 14.4 1.6 -11.8292
153 2 38.4 12.8 0 -9.89696
154 1 40 14.4 1.6 -11.8189
155 2 41.6 12.8 0 -9.88054
156 1 43.2 14.4 1.6 -11.7867
157 2 44.8 12.8 0 -9.87909
158 1 46.4 14.4 1.6 -11.7688
159 3 48 12.8 0 -11.34
160 1 49.6 14.4 1.6 -11.7936
161 3 0 16 0 -11.2615
162 4 1.6 17.6 1.6 -13.3947
163 2 3.2 16 0 -9.80944
164 4 4.8 17.6 1.6 -13.3174
165 2 6.4 16 0 -9.84986
166 2 8 17.6 1.6 -9.829
167 2 9.6 16 0 -9.87155
168 1 11.2 17.6 1.6 -11.8188
169 2 12.8 16 0 -9.8866
170 4 14.4 17.6 1.6 -13.3443
171 2 16 16 0 -9.94171
172 4 17.6 17.6 1.6 -13.3984
173 2 19.2 16 0 -9.90698
174 2 20.8 17.6 1.6 -9.89185
175 2 22.4 16 0 -9.9207
176 2 24 17.6 1.6 -9.90015
177 2 25.6 16 0 -9.89926
178 1 27.2 17.6 1.6 -11.7429
179 2 28.8 16 0 -9.89937
180 2 30.4 17.6 1.6 -9.85858
181 4 32 16 0 -13.4296
182 1 33.6 17.6 1.6 -11.8232
183 3 35.2 16 0 -11.4369
184 1 36.8 17.6 1.6 -11.855
185 3 38.4 16 0 -11.3338
186 1 40 17.6 1.6 -11.8415
187 3 41.6 16 0 -11.24
188 1 43.2 17.6 1.6 -11.8413
189 3 44.8 16 0 -11.2717
190 1 46.4 17.6 1.6 -11.8589
191 3 48 16 0 -11.337
192 2 49.6 17.6 1.6 -9.84989
193 2 0 19.2 0 -9.91318
194 2 1.6 20.8 1.6 -9.92843
195 2 3.2 19.2 0 -9.9284
196 2 4.8 20.8 1.6 -9.89988
197 2 6.4 19.2 0 -9.88159
198 2 8 20.8 1.6 -9.91048
199 2 9.6 19.2 0 -9.89149
200 2 11.2 20.8 1.6 -9.8682
201 2 12.8 19.2 0 -9.9145
202 4 14.4 20.8 1.6 -13.3435
203 2 16 19.2 0 -9.89091
204 1 17.6 20.8 1.6 -11.7801
205 3 19.2 19.2 0 -11.3283
206 2 20.8 20.8 1.6 -9.87471
207 4 22.4 19.2 0 -13.4187
208 2 24 20.8 1.6 -9.88334
209 2 25.6 19.2 0 -9.83655
210 1 27.2 20.8 1.6 -11.7438
211 2 28.8 19.2 0 -9.83411
212 2 30.4 20.8 1.6 -9.88312
213 2 32 19.2 0 -9.88807
214 4 33.6 20.8 1.6 -13.3539
215 3 35.2 19.2 0 -11.3033
216 1 36.8 20.8 1.6 -11.8554
217 3 38.4 19.2 0 -11.2756
218 1 40 20.8 1.6 -11.812
219 3 41.6 19.2 0 -11.2756
220 1 43.2 20.8 1.6 -11.8395
221 3 44.8 19.2 0 -11.3415
222 4 46.4 20.8 1.6 -13.3573
223 3 48 19.2 0 -11.3617
224 2 49.6 20.8 1.6 -9.86186
225 2 0 22.4 0 -9.86574
226 2 1.6 24 1.6 -9.86187
227 2 3.2 22.4 0 -9.94167
228 2 4.8 24 1.6 -9.957
229 2 6.4 22.4 0 -9.94948
230 2 8 24 1.6 -9.88902
231 2 9.6 22.4 0 -9.87014
232 2 11.2 24 1.6 -9.84293
233 2 12.8 22.4 0 -9.90681
234 4 14.4 24 1.6 -13.3697
235 2 16 22.4 0 -9.8387
236 4 17.6 24 1.6 -13.3062
237 2 19.2 22.4 0 -9.88914
238 4 20.8 24 1.6 -13.4225
239 2 22.4 22.4 0 -9.89364
240 2 24 24 1.6 -9.90775
241 2 25.6 22.4 0 -9.9207
242 2 27.2 24 1.6 -9.79528
243 2 28.8 22.4 0 -9.90457
244 4 30.4 24 1.6 -13.4108
245 2 32 22.4 0 -9.88709
246 1 33.6 24 1.6 -11.843
247 3 35.2 22.4 0 -11.2402
248 1 36.8 24 1.6 -11.8094
249 3 38.4 22.4 0 -11.24
250 1 40 24 1.6 -11.7799
251 3 41.6 22.4 0 -11.2348
252 1 43.2 24 1.6 -11.7823
253 3 44.8 22.4 0 -11.3094
254 1 46.4 24 1.6 -11.8114
255 3 48 22.4 0 -11.2698
256 1 49.6 24 1.6 -11.7648
257 2 0 25.6 0 -9.84167
259 2 3.2 25.6 0 -9.92298
261 2 6.4 25.6 0 -9.89709
263 1 9.6 25.6 0 -11.7333
265 4 12.8 25.6 0 -13.3695
267 2 16 25.6 0 -9.85262
269 2 19.2 25.6 0 -9.92144
271 2 22.4 25.6 0 -9.9326
273 2 25.6 25.6 0 -9.85714
275 4 28.8 25.6 0 -13.3972
277 3 32 25.6 0 -11.3226
279 3 35.2 25.6 0 -11.2048
281 2 38.4 25.6 0 -9.80897
283 2 41.6 25.6 0 -9.78384
285 3 44.8 25.6 0 -11.2016
287 3 48 25.6 0 -11.235
258 2 1.6 27.2 1.6 -9.85936
289 2 0 28.8 0 -9.81236
260 2 4.8 27.2 1.6 -9.90624
291 2 3.2 28.8 0 -9.81601
262 3 8 27.2 1.6 -11.2591
293 1 6.4 28.8 0 -11.7995
264 2 11.2 27.2 1.6 -9.8386
295 1 9.6 28.8 0 -11.7766
266 2 14.4 27.2 1.6 -9.855
297 2 12.8 28.8 0 -9.87192
268 2 17.6 27.2 1.6 -9.87045
299 4 16 28.8 0 -13.3941
270 2 20.8 27.2 1.6 -9.88745
301 2 19.2 28.8 0 -9.9224
272 1 24 27.2 1.6 -11.8067
303 3 22.4 28.8 0 -11.3714
305 2 25.6 28.8 0 -9.84228
274 1 27.2 27.2 1.6 -11.709
307 2 28.8 28.8 0 -9.81128
276 2 30.4 27.2 1.6 -9.80724
309 3 32 28.8 0 -11.3342
278 1 33.6 27.2 1.6 -11.8678
311 3 35.2 28.8 0 -11.1645
280 1 36.8 27.2 1.6 -11.7872
313 2 38.4 28.8 0 -9.85514
282 2 40 27.2 1.6 -9.82622
315 2 41.6 28.8 0 -9.8796
284 1 43.2 27.2 1.6 -11.7644
317 2 44.8 28.8 0 -9.78813
286 4 46.4 27.2 1.6 -13.3628
319 2 48 28.8 0 -9.81224
288 2 49.6 27.2 1.6 -9.82522
290 2 1.6 30.4 1.6 -9.85193
321 3 0 32 0 -11.37
292 2 4.8 30.4 1.6 -9.78486
323 2 3.2 32 0 -9.86229
294 3 8 30.4 1.6 -11.27
325 4 6.4 32 0 -13.3524
296 2 11.2 30.4 1.6 -9.86327
327 4 9.6 32 0 -13.368
298 4 14.4 30.4 1.6 -13.3094
329 2 12.8 32 0 -9.90264
300 4 17.6 30.4 1.6 -13.343
331 2 16 32 0 -9.85881
302 1 20.8 30.4 1.6 -11.8192
333 2 19.2 32 0 -9.90863
304 2 24 30.4 1.6 -9.85454
335 3 22.4 32 0 -11.3981
337 3 25.6 32 0 -11.4127
306 1 27.2 30.4 1.6 -11.7821
339 3 28.8 32 0 -11.271
308 1 30.4 30.4 1.6 -11.8421
341 3 32 32 0 -11.2417
310 1 33.6 30.4 1.6 -11.8414
343 3 35.2 32 0 -11.2746
312 1 36.8 30.4 1.6 -11.8259
345 2 38.4 32 0 -9.95697
314 2 40 30.4 1.6 -9.93741
347 3 41.6 32 0 -11.3753
316 4 43.2 30.4 1.6 -13.3927
349 2 44.8 32 0 -9.91113
318 2 46.4 30.4 1.6 -9.83437
351 2 48 32 0 -9.87491
320 2 49.6 30.4 1.6 -9.89857
322 3 1.6 33.6 1.6 -11.3516
353 1 0 35.2 0 -11.8309
324 3 4.8 33.6 1.6 -11.3031
355 1 3.2 35.2 0 -11.8181
326 3 8 33.6 1.6 -11.325
357 1 6.4 35.2 0 -11.7861
328 2 11.2 33.6 1.6 -9.88655
359 1 9.6 35.2 0 -11.7867
330 1 14.4 33.6 1.6 -11.7695
361 2 12.8 35.2 0 -9.89894
332 4 17.6 33.6 1.6 -13.343
363 2 16 35.2 0 -9.92977
334 1 20.8 33.6 1.6 -11.7931
365 2 19.2 35.2 0 -9.90881
336 2 24 33.6 1.6 -9.85589
367 2 22.4 35.2 0 -9.91304
369 2 25.6 35.2 0 -9.95967
338 1 27.2 33.6 1.6 -11.8855
371 3 28.8 35.2 0 -11.302
340 1 30.4 33.6 1.6 -11.8412
373 3 32 35.2 0 -11.3054
342 1 33.6 33.6 1.6 -11.8412
375 3 35.2 35.2 0 -11.409
344 1 36.8 33.6 1.6 -11.8702
377 3 38.4 35.2 0 -11.3906
346 2 40 33.6 1.6 -9.94692
379 1 41.6 35.2 0 -11.8791
348 3 43.2 33.6 1.6 -11.3419
381 4 44.8 35.2 0 -13.3556
350 2 46.4 33.6 1.6 -9.86374
383 1 48 35.2 0 -11.8168
352 3 49.6 33.6 1.6 -11.3442
354 3 1.6 36.8 1.6 -11.2039
385 1 0 38.4 0 -11.8258
356 3 4.8 36.8 1.6 -11.3052
387 1 3.2 38.4 0 -11.8257
358 2 8 36.8 1.6 -9.88593
389 1 6.4 38.4 0 -11.7888
360 2 11.2 36.8 1.6 -9.93879
391 2 9.6 38.4 0 -9.89165
362 2 14.4 36.8 1.6 -9.8901
393 3 12.8 38.4 0 -11.438
364 4 17.6 36.8 1.6 -13.4002
395 2 16 38.4 0 -9.92901
366 4 20.8 36.8 1.6 -13.3171
397 2 19.2 38.4 0 -9.92838
368 4 24 36.8 1.6 -13.3703
399 2 22.4 38.4 0 -9.89273
401 2 25.6 38.4 0 -9.8928
370 4 27.2 36.8 1.6 -13.3276
403 2 28.8 38.4 0 -9.86328
372 1 30.4 36.8 1.6 -11.7872
405 2 32 38.4 0 -9.86881
374 2 33.6 36.8 1.6 -9.89226
407 2 35.2 38.4 0 -9.96224
376 3 36.8 36.8 1.6 -11.3634
409 2 38.4 38.4 0 -9.92503
378 2 40 36.8 1.6 -9.91358
411 1 41.6 38.4 0 -11.817
380 3 43.2 36.8 1.6 -11.1996
413 1 44.8 38.4 0 -11.8698
382 3 46.4 36.8 1.6 -11.2736
415 4 48 38.4 0 -13.3645
384 3 49.6 36.8 1.6 -11.2764
386 3 1.6 40 1.6 -11.2756
417 1 0 41.6 0 -11.8555
388 3 4.8 40 1.6 -11.306
419 4 3.2 41.6 0 -13.365
390 2 8 40 1.6 -9.86302
421 1 6.4 41.6 0 -11.7869
392 4 11.2 40 1.6 -13.4297
423 2 9.6 41.6 0 -9.88115
394 2 14.4 40 1.6 -9.91097
425 2 12.8 41.6 0 -9.89505
396 2 17.6 40 1.6 -9.89354
427 4 16 41.6 0 -13.394
398 2 20.8 40 1.6 -9.90786
429 2 19.2 41.6 0 -9.89869
400 2 24 40 1.6 -9.90632
431 2 22.4 41.6 0 -9.88495
433 2 25.6 41.6 0 -9.86369
402 2 27.2 40 1.6 -9.90787
435 2 28.8 41.6 0 -9.92837
404 4 30.4 40 1.6 -13.3362
437 2 32 41.6 0 -9.9053
406 4 33.6 40 1.6 -13.3628
439 2 35.2 41.6 0 -9.86137
408 2 36.8 40 1.6 -9.95613
441 2 38.4 41.6 0 -9.87871
410 3 40 40 1.6 -11.371
443 1 41.6 41.6 0 -11.8549
412 3 43.2 40 1.6 -11.2045
445 1 44.8 41.6 0 -11.8554
414 3 46.4 40 1.6 -11.3089
447 1 48 41.6 0 -11.8841
416 3 49.6 40 1.6 -11.3086
418 3 1.6 43.2 1.6 -11.2753
449 1 0 44.8 0 -11.8556
420 3 4.8 43.2 1.6 -11.3059
451 1 3.2 44.8 0 -11.8416
422 2 8 43.2 1.6 -9.84046
453 4 6.4 44.8 0 -13.3255
424 1 11.2 43.2 1.6 -11.7588
455 2 9.6 44.8 0 -9.83333
426 2 14.4 43.2 1.6 -9.90196
457 2 12.8 44.8 0 -9.92304
428 2 17.6 43.2 1.6 -9.91089
459 2 16 44.8 0 -9.88437
430 2 20.8 43.2 1.6 -9.92021
461 4 19.2 44.8 0 -13.3381
432 2 24 43.2 1.6 -9.88606
463 2 22.4 44.8 0 -9.8546
465 2 25.6 44.8 0 -9.88633
434 4 27.2 43.2 1.6 -13.4202
467 2 28.8 44.8 0 -9.92523
436 2 30.4 43.2 1.6 -9.88603
469 2 32 44.8 0 -9.89173
438 1 33.6 43.2 1.6 -11.7754
471 2 35.2 44.8 0 -9.83521
440 4 36.8 43.2 1.6 -13.3445
473 1 38.4 44.8 0 -11.8352
442 3 40 43.2 1.6 -11.4154
475 4 41.6 44.8 0 -13.3828
444 3 43.2 43.2 1.6 -11.307
477 4 44.8 44.8 0 -13.4044
446 3 46.4 43.2 1.6 -11.3387
479 4 48 44.8 0 -13.3845
448 3 49.6 43.2 1.6 -11.3086
450 3 1.6 46.4 1.6 -11.2417
481 1 0 48 0 -11.8557
452 3 4.8 46.4 1.6 -11.3006
483 1 3.2 48 0 -11.8116
454 2 8 46.4 1.6 -9.89337
485 1 6.4 48 0 -11.8587
456 4 11.2 46.4 1.6 -13.3715
487 4 9.6 48 0 -13.3803
458 2 14.4 46.4 1.6 -9.90582
489 2 12.8 48 0 -9.90797
460 2 17.6 46.4 1.6 -9.87192
491 1 16 48 0 -11.7579
462 2 20.8 46.4 1.6 -9.88224
493 4 19.2 48 0 -13.3094
464 2 24 46.4 1.6 -9.96945
495 2 22.4 48 0 -9.90469
497 2 25.6 48 0 -9.88096
466 2 27.2 46.4 1.6 -9.92841
499 2 28.8 48 0 -9.88104
468 2 30.4 46.4 1.6 -9.90167
501 1 32 48 0 -11.7762
470 2 33.6 46.4 1.6 -9.86528
503 4 35.2 48 0 -13.3827
472 2 36.8 46.4 1.6 -9.86794
505 1 38.4 48 0 -11.8275
474 3 40 46.4 1.6 -11.3071
507 1 41.6 48 0 -11.8557
476 3 43.2 46.4 1.6 -11.3068
509 1 44.8 48 0 -11.8556
478 3 46.4 46.4 1.6 -11.3068
511 1 48 48 0 -11.8555
480 3 49.6 46.4 1.6 -11.2753
482 3 1.6 49.6 1.6 -11.2414
484 3 4.8 49.6 1.6 -11.3681
486 3 8 49.6 1.6 -11.3906
488 3 11.2 49.6 1.6 -11.3702
490 2 14.4 49.6 1.6 -9.85832
492 2 17.6 49.6 1.6 -9.76611
494 2 20.8 49.6 1.6 -9.86387
496 2 24 49.6 1.6 -9.88608
498 2 27.2 49.6 1.6 -9.89914
500 2 30.4 49.6 1.6 -9.83075
502 3 33.6 49.6 1.6 -11.2971
504 3 36.8 49.6 1.6 -11.3339
506 3 40 49.6 1.6 -11.2417
508 3 43.2 49.6 1.6 -11.2414
510 3 46.4 49.6 1.6 -11.2414
512 3 49.6 49.6 1.6 -11.2414
513 1 0 0 3.2 -11.8415
514 3 1.6 1.6 4.8 -11.2759
515 1 3.2 0 3.2 -11.8554
516 3 4.8 1.6 4.8 -11.3037
517 4 6.4 0 3.2 -13.4147
518 2 8 1.6 4.8 -9.89441
519 4 9.6 0 3.2 -13.4013
520 4 11.2 1.6 4.8 -13.3722
521 4 12.8 0 3.2 -13.3878
522 2 14.4 1.6 4.8 -9.81845
523 1 16 0 3.2 -11.6883
524 2 17.6 1.6 4.8 -9.82572
525 1 19.2 0 3.2 -11.7169
526 3 20.8 1.6 4.8 -11.3191
527 1 22.4 0 3.2 -11.7986
528 3 24 1.6 4.8 -11.2699
529 1 25.6 0 3.2 -11.7943
530 3 27.2 1.6 4.8 -11.2703
531 2 28.8 0 3.2 -9.84162
532 3 30.4 1.6 4.8 -11.2599
533 1 32 0 3.2 -11.7873
534 2 33.6 1.6 4.8 -9.89451
535 2 35.2 0 3.2 -9.83151
536 3 36.8 1.6 4.8 -11.3932
537 1 38.4 0 3.2 -11.8815
538 3 40 1.6 4.8 -11.2753
539 1 41.6 0 3.2 -11.8415
540 3 43.2 1.6 4.8 -11.3068
541 1 44.8 0 3.2 -11.8556
542 3 46.4 1.6 4.8 -11.3378
543 1 48 0 3.2 -11.8557
544 3 49.6 1.6 4.8 -11.3086
545 1 0 3.2 3.2 -11.8694
546 3 1.6 4.8 4.8 -11.2298
547 1 3.2 3.2 3.2 -11.7976
548 2 4.8 4.8 4.8 -9.83477
549 4 6.4 3.2 3.2 -13.4083
550 2 8 4.8 4.8 -9.87874
551 2 9.6 3.2 3.2 -9.83759
552 2 11.2 4.8 4.8 -9.84993
553 2 12.8 3.2 3.2 -9.84326
554 4 14.4 4.8 4.8 -13.4243
555 2 16 3.2 3.2 -9.88686
556 2 17.6 4.8 4.8 -9.89148
557 2 19.2 3.2 3.2 -9.92955
558 2 20.8 4.8 4.8 -9.85117
559 3 22.4 3.2 3.2 -11.3185
560 2 24 4.8 4.8 -9.84229
561 1 25.6 3.2 3.2 -11.8537
562 3 27.2 4.8 4.8 -11.2726
563 4 28.8 3.2 3.2 -13.3827
564 3 30.4 4.8 4.8 -11.335
565 1 32 3.2 3.2 -11.8305
566 2 33.6 4.8 4.8 -9.86838
567 4 35.2 3.2 3.2 -13.3957
568 3 36.8 4.8 4.8 -11.3358
569 4 38.4 3.2 3.2 -13.3828
570 3 40 4.8 4.8 -11.3086
571 1 41.6 3.2 3.2 -11.87
572 3 43.2 4.8 4.8 -11.3068
573 4 44.8 3.2 3.2 -13.4049
574 3 46.4 4.8 4.8 -11.338
575 4 48 3.2 3.2 -13.3839
576 3 49.6 4.8 4.8 -11.3681
577 1 0 6.4 3.2 -11.8682
578 2 1.6 8 4.8 -9.87662
579 1 3.2 6.4 3.2 -11.7438
580 2 4.8 8 4.8 -9.83663
581 2 6.4 6.4 3.2 -9.82929
582 2 8 8 4.8 -9.89924
583 2 9.6 6.4 3.2 -9.90178
584 2 11.2 8 4.8 -9.94944
585 2 12.8 6.4 3.2 -9.90991
586 2 14.4 8 4.8 -9.88262
587 3 16 6.4 3.2 -11.424
588 2 17.6 8 4.8 -9.95651
589 2 19.2 6.4 3.2 -9.88975
590 2 20.8 8 4.8 -9.86664
591 1 22.4 6.4 3.2 -11.8068
592 3 24 8 4.8 -11.2586
593 1 25.6 6.4 3.2 -11.8269
594 3 27.2 8 4.8 -11.4223
595 1 28.8 6.4 3.2 -11.8837
596 3 30.4 8 4.8 -11.3523
597 4 32 6.4 3.2 -13.3262
598 3 33.6 8 4.8 -11.3256
599 1 35.2 6.4 3.2 -11.8163
600 3 36.8 8 4.8 -11.3073
601 1 38.4 6.4 3.2 -11.8695
602 3 40 8 4.8 -11.2761
603 1 41.6 6.4 3.2 -11.8677
604 3 43.2 8 4.8 -11.2403
605 1 44.8 6.4 3.2 -11.8553
606 3 46.4 8 4.8 -11.2715
607 1 48 6.4 3.2 -11.8551
608 3 49.6 8 4.8 -11.3209
609 1 0 9.6 3.2 -11.8093
610 3 1.6 11.2 4.8 -11.3151
611 1 3.2 9.6 3.2 -11.7619
612 2 4.8 11.2 4.8 -9.8803
613 1 6.4 9.6 3.2 -11.7388
614 2 8 11.2 4.8 -9.85871
615 2 9.6 9.6 3.2 -9.88295
616 2 11.2 11.2 4.8 -9.84858
617 2 12.8 9.6 3.2 -9.92325
618 4 14.4 11.2 4.8 -13.3897
619 3 16 9.6 3.2 -11.4177
620 2 17.6 11.2 4.8 -9.90867
621 2 19.2 9.6 3.2 -9.9557
622 2 20.8 11.2 4.8 -9.91255
623 1 22.4 9.6 3.2 -11.8245
624 2 24 11.2 4.8 -9.88812
625 1 25.6 9.6 3.2 -11.8719
626 2 27.2 11.2 4.8 -9.92949
627 3 28.8 9.6 3.2 -11.276
628 4 30.4 11.2 4.8 -13.4286
629 4 32 9.6 3.2 -13.4032
630 2 33.6 11.2 4.8 -9.86189
631 1 35.2 9.6 3.2 -11.8104
632 2 36.8 11.2 4.8 -9.8889
633 1 38.4 9.6 3.2 -11.8125
634 3 40 11.2 4.8 -11.315
635 1 41.6 9.6 3.2 -11.8418
636 2 43.2 11.2 4.8 -9.86169
637 1 44.8 9.6 3.2 -11.7742
638 2 46.4 11.2 4.8 -9.83869
639 1 48 9.6 3.2 -11.7601
640 4 49.6 11.2 4.8 -13.4248
641 2 0 12.8 3.2 -9.81706
642 1 1.6 14.4 4.8 -11.7631
643 2 3.2 12.8 3.2 -9.77989
644 2 4.8 14.4 4.8 -9.81267
645 1 6.4 12.8 3.2 -11.7023
646 2 8 14.4 4.8 -9.90251
647 2 9.6 12.8 3.2 -9.89702
648 4 11.2 14.4 4.8 -13.3668
649 1 12.8 12.8 3.2 -11.7202
650 2 14.4 14.4 4.8 -9.82959
651 2 16 12.8 3.2 -9.92669
652 2 17.6 14.4 4.8 -9.88451
653 3 19.2 12.8 3.2 -11.3355
654 1 20.8 14.4 4.8 -11.8312
655 2 22.4 12.8 3.2 -9.856
656 4 24 14.4 4.8 -13.3477
657 4 25.6 12.8 3.2 -13.3949
658 2 27.2 14.4 4.8 -9.91447
659 2 28.8 12.8 3.2 -9.93814
660 2 30.4 14.4 4.8 -9.88289
661 2 32 12.8 3.2 -9.89848
662 1 33.6 14.4 4.8 -11.8125
663 2 35.2 12.8 3.2 -9.86225
664 1 36.8 14.4 4.8 -11.7752
665 2 38.4 12.8 3.2 -9.84982
666 1 40 14.4 4.8 -11.7576
667 3 41.6 12.8 3.2 -11.3077
668 1 43.2 14.4 4.8 -11.7617
669 2 44.8 12.8 3.2 -9.81287
670 1 46.4 14.4 4.8 -11.7553
671 2 48 12.8 3.2 -9.82279
672 2 49.6 14.4 4.8 -9.81273
673 2 0 16 3.2 -9.86069
674 2 1.6 17.6 4.8 -9.87696
675 2 3.2 16 3.2 -9.78612
676 2 4.8 17.6 4.8 -9.86429
677 2 6.4 16 3.2 -9.83281
678 2 8 17.6 4.8 -9.92553
679 2 9.6 16 3.2 -9.92637
680 2 11.2 17.6 4.8 -9.82724
681 2 12.8 16 3.2 -9.84722
682 1 14.4 17.6 4.8 -11.8112
683 2 16 16 3.2 -9.90886
684 4 17.6 17.6 4.8 -13.4173
685 2 19.2 16 3.2 -9.91798
686 2 20.8 17.6 4.8 -9.88269
687 2 22.4 16 3.2 -9.88492
688 2 24 17.6 4.8 -9.9072
689 2 25.6 16 3.2 -9.9074
690 2 27.2 17.6 4.8 -9.85625
691 2 28.8 16 3.2 -9.91824
692 2 30.4 17.6 4.8 -9.88116
693 2 32 16 3.2 -9.8855
694 1 33.6 17.6 4.8 -11.779
695 3 35.2 16 3.2 -11.2743
696 1 36.8 17.6 4.8 -11.7868
697 3 38.4 16 3.2 -11.1651
698 1 40 17.6 4.8 -11.7588
699 3 41.6 16 3.2 -11.2054
700 1 43.2 17.6 4.8 -11.7749
701 3 44.8 16 3.2 -11.1626
702 4 46.4 17.6 4.8 -13.2989
703 2 48 16 3.2 -9.83801
704 2 49.6 17.6 4.8 -9.91453
705 2 0 19.2 3.2 -9.92321
706 2 1.6 20.8 4.8 -9.89203
707 2 3.2 19.2 3.2 -9.89749
708 2 4.8 20.8 4.8 -9.90913
709 1 6.4 19.2 3.2 -11.7773
710 3 8 20.8 4.8 -11.2448
711 2 9.6 19.2 3.2 -9.88964
712 2 11.2 20.8 4.8 -9.91625
713 3 12.8 19.2 3.2 -11.3165
714 1 14.4 20.8 4.8 -11.8253
715 3 16 19.2 3.2 -11.2938
716 2 17.6 20.8 4.8 -9.82417
717 2 19.2 19.2 3.2 -9.95288
718 2 20.8 20.8 4.8 -9.95093
719 4 22.4 19.2 3.2 -13.3873
720 2 24 20.8 4.8 -9.94175
721 2 25.6 19.2 3.2 -9.8556
722 2 27.2 20.8 4.8 -9.80737
723 4 28.8 19.2 3.2 -13.2798
724 2 30.4 20.8 4.8 -9.88316
725 2 32 19.2 3.2 -9.88571
726 4 33.6 20.8 4.8 -13.345
727 3 35.2 19.2 3.2 -11.2362
728 1 36.8 20.8 4.8 -11.8281
729 3 38.4 19.2 3.2 -11.2048
730 1 40 20.8 4.8 -11.7625
731 3 41.6 19.2 3.2 -11.1648
732 1 43.2 20.8 4.8 -11.7627
733 3 44.8 19.2 3.2 -11.2389
734 1 46.4 20.8 4.8 -11.7101
735 2 48 19.2 3.2 -9.88914
736 4 49.6 20.8 4.8 -13.3152
737 2 0 22.4 3.2 -9.83353
738 1 1.6 24 4.8 -11.7736
739 2 3.2 22.4 3.2 -9.92065
740 2 4.8 24 4.8 -9.92108
741 4 6.4 22.4 3.2 -13.3426
742 2 8 24 4.8 -9.91039
743 1 9.6 22.4 3.2 -11.7861
744 2 11.2 24 4.8 -9.8898
745 2 12.8 22.4 3.2 -9.88867
746 2 14.4 24 4.8 -9.79699
747 2 16 22.4 3.2 -9.84823
748 4 17.6 24 4.8 -13.3671
749 2 19.2 22.4 3.2 -9.86391
750 2 20.8 24 4.8 -9.90195
751 4 22.4 22.4 3.2 -13.4254
752 2 24 24 4.8 -9.90181
753 2 25.6 22.4 3.2 -9.88744
754 1 27.2 24 4.8 -11.738
755 2 28.8 22.4 3.2 -9.84897
756 1 30.4 24 4.8 -11.802
757 3 32 22.4 3.2 -11.3557
758 1 33.6 24 4.8 -11.8658
759 3 35.2 22.4 3.2 -11.3703
760 2 36.8 24 4.8 -9.82131
761 3 38.4 22.4 3.2 -11.2655
762 2 40 24 4.8 -9.85402
763 2 41.6 22.4 3.2 -9.80887
764 2 43.2 24 4.8 -9.86168
765 3 44.8 22.4 3.2 -11.2344
766 1 46.4 24 4.8 -11.757
767 2 48 22.4 3.2 -9.75029
768 1 49.6 24 4.8 -11.6861
769 2 0 25.6 3.2 -9.81344
771 2 3.2 25.6 3.2 -9.91254
773 2 6.4 25.6 3.2 -9.91508
775 4 9.6 25.6 3.2 -13.335
777 2 12.8 25.6 3.2 -9.85968
779 2 16 25.6 3.2 -9.84601
781 2 19.2 25.6 3.2 -9.91033
783 3 22.4 25.6 3.2 -11.317
785 2 25.6 25.6 3.2 -9.83689
787 2 28.8 25.6 3.2 -9.78772
789 3 32 25.6 3.2 -11.2667
791 3 35.2 25.6 3.2 -11.274
793 2 38.4 25.6 3.2 -9.87115
795 2 41.6 25.6 3.2 -9.86595
797 3 44.8 25.6 3.2 -11.3224
799 2 48 25.6 3.2 -9.81022
770 2 1.6 27.2 4.8 -9.88341
801 1 0 28.8 3.2 -11.7582
772 3 4.8 27.2 4.8 -11.4014
803 1 3.2 28.8 3.2 -11.7589
774 3 8 27.2 4.8 -11.3815
805 1 6.4 28.8 3.2 -11.808
776 2 11.2 27.2 4.8 -9.86817
807 1 9.6 28.8 3.2 -11.8061
778 1 14.4 27.2 4.8 -11.6933
809 2 12.8 28.8 3.2 -9.86325
780 1 17.6 27.2 4.8 -11.7217
811 2 16 28.8 3.2 -9.82167
782 2 20.8 27.2 4.8 -9.89114
813 2 19.2 28.8 3.2 -9.89713
784 2 24 27.2 4.8 -9.88455
815 2 22.4 28.8 3.2 -9.93618
817 2 25.6 28.8 3.2 -9.83172
786 1 27.2 27.2 4.8 -11.757
819 3 28.8 28.8 3.2 -11.1984
788 1 30.4 27.2 4.8 -11.8132
821 3 32 28.8 3.2 -11.3083
790 1 33.6 27.2 4.8 -11.8111
823 3 35.2 28.8 3.2 -11.2761
792 1 36.8 27.2 4.8 -11.8471
825 3 38.4 28.8 3.2 -11.3468
794 4 40 27.2 4.8 -13.3983
827 2 41.6 28.8 3.2 -9.90844
796 2 43.2 27.2 4.8 -9.88845
829 2 44.8 28.8 3.2 -9.86084
798 2 46.4 27.2 4.8 -9.89308
831 4 48 28.8 3.2 -13.3379
800 2 49.6 27.2 4.8 -9.88111
802 2 1.6 30.4 4.8 -9.84207
833 2 0 32 3.2 -9.86337
804 3 4.8 30.4 4.8 -11.27
835 1 3.2 32 3.2 -11.7855
806 3 8 30.4 4.8 -11.3321
837 1 6.4 32 3.2 -11.8682
808 2 11.2 30.4 4.8 -9.90731
839 4 9.6 32 3.2 -13.4237
810 4 14.4 30.4 4.8 -13.2497
841 2 12.8 32 3.2 -9.83591
812 2 17.6 30.4 4.8 -9.85901
843 2 16 32 3.2 -9.83962
814 4 20.8 30.4 4.8 -13.4184
845 3 19.2 32 3.2 -11.2885
816 2 24 30.4 4.8 -9.8804
847 2 22.4 32 3.2 -9.90725
849 3 25.6 32 3.2 -11.3861
818 1 27.2 30.4 4.8 -11.8549
851 3 28.8 32 3.2 -11.242
820 1 30.4 30.4 4.8 -11.8411
853 3 32 32 3.2 -11.2417
822 1 33.6 30.4 4.8 -11.8917
855 3 35.2 32 3.2 -11.2722
824 4 36.8 30.4 4.8 -13.4086
857 3 38.4 32 3.2 -11.3689
826 2 40 30.4 4.8 -9.88324
859 2 41.6 32 3.2 -9.90295
828 2 43.2 30.4 4.8 -9.86782
861 4 44.8 32 3.2 -13.3758
830 2 46.4 30.4 4.8 -9.91091
863 4 48 32 3.2 -13.3639
832 2 49.6 30.4 4.8 -9.88448
834 2 1.6 33.6 4.8 -9.87187
865 1 0 35.2 3.2 -11.8306
836 3 4.8 33.6 4.8 -11.3065
867 1 3.2 35.2 3.2 -11.8548
838 3 8 33.6 4.8 -11.3539
869 4 6.4 35.2 3.2 -13.4059
840 2 11.2 33.6 4.8 -9.90648
871 2 9.6 35.2 3.2 -9.86464
842 1 14.4 33.6 4.8 -11.7635
873 2 12.8 35.2 3.2 -9.90627
844 4 17.6 33.6 4.8 -13.3969
875 3 16 35.2 3.2 -11.2615
846 1 20.8 33.6 4.8 -11.7969
877 3 19.2 35.2 3.2 -11.226
848 4 24 33.6 4.8 -13.3883
879 2 22.4 35.2 3.2 -9.78567
881 3 25.6 35.2 3.2 -11.2973
850 1 27.2 33.6 4.8 -11.8689
883 3 28.8 35.2 3.2 -11.2405
852 1 30.4 33.6 4.8 -11.841
885 3 32 35.2 3.2 -11.3018
854 1 33.6 33.6 4.8 -11.8582
887 2 35.2 35.2 3.2 -9.88737
856 4 36.8 33.6 4.8 -13.3221
889 2 38.4 35.2 3.2 -9.9107
858 2 40 33.6 4.8 -9.83123
891 1 41.6 35.2 3.2 -11.7283
860 2 43.2 33.6 4.8 -9.75479
893 1 44.8 35.2 3.2 -11.7529
862 2 46.4 33.6 4.8 -9.81209
895 1 48 35.2 3.2 -11.7862
864 2 49.6 33.6 4.8 -9.88874
866 3 1.6 36.8 4.8 -11.236
897 1 0 38.4 3.2 -11.8413
868 3 4.8 36.8 4.8 -11.3625
899 1 3.2 38.4 3.2 -11.8676
870 2 8 36.8 4.8 -9.88601
901 2 6.4 38.4 3.2 -9.83421
872 2 11.2 36.8 4.8 -9.8925
903 2 9.6 38.4 3.2 -9.95812
874 1 14.4 36.8 4.8 -11.8218
905 3 12.8 38.4 3.2 -11.436
876 1 17.6 36.8 4.8 -11.7528
907 2 16 38.4 3.2 -9.88207
878 1 20.8 36.8 4.8 -11.7023
909 2 19.2 38.4 3.2 -9.81105
880 1 24 36.8 4.8 -11.763
911 2 22.4 38.4 3.2 -9.83494
913 2 25.6 38.4 3.2 -9.88468
882 1 27.2 36.8 4.8 -11.805
915 2 28.8 38.4 3.2 -9.81209
884 1 30.4 36.8 4.8 -11.7997
917 2 32 38.4 3.2 -9.86384
886 2 33.6 36.8 4.8 -9.81427
919 2 35.2 38.4 3.2 -9.92634
888 1 36.8 36.8 4.8 -11.792
921 2 38.4 38.4 3.2 -9.92825
890 2 40 36.8 4.8 -9.81327
923 1 41.6 38.4 3.2 -11.7628
892 2 43.2 36.8 4.8 -9.75078
925 1 44.8 38.4 3.2 -11.7982
894 3 46.4 36.8 4.8 -11.2002
927 1 48 38.4 3.2 -11.8696
896 3 49.6 36.8 4.8 -11.2385
898 3 1.6 40 4.8 -11.2403
929 1 0 41.6 3.2 -11.8697
900 3 4.8 40 4.8 -11.2685
931 1 3.2 41.6 3.2 -11.8554
902 2 8 40 4.8 -9.89094
933 1 6.4 41.6 3.2 -11.8054
904 2 11.2 40 4.8 -9.90943
935 2 9.6 41.6 3.2 -9.83715
906 2 14.4 40 4.8 -9.86996
937 2 12.8 41.6 3.2 -9.92447
908 1 17.6 40 4.8 -11.7582
939 2 16 41.6 3.2 -9.8992
910 4 20.8 40 4.8 -13.3065
941 2 19.2 41.6 3.2 -9.90258
912 2 24 40 4.8 -9.89585
943 2 22.4 41.6 3.2 -9.94338
945 2 25.6 41.6 3.2 -9.9637
914 2 27.2 40 4.8 -9.91466
947 2 28.8 41.6 3.2 -9.9283
916 4 30.4 40 4.8 -13.3633
949 2 32 41.6 3.2 -9.88931
918 2 33.6 40 4.8 -9.9079
951 2 35.2 41.6 3.2 -9.87095
920 4 36.8 40 4.8 -13.3592
953 3 38.4 41.6 3.2 -11.3933
922 2 40 40 4.8 -9.85579
955 1 41.6 41.6 3.2 -11.8203
924 2 43.2 40 4.8 -9.75251
957 1 44.8 41.6 3.2 -11.8259
926 3 46.4 40 4.8 -11.2359
959 4 48 41.6 3.2 -13.3639
928 3 49.6 40 4.8 -11.2736
930 3 1.6 43.2 4.8 -11.2759
961 1 0 44.8 3.2 -11.8414
932 3 4.8 43.2 4.8 -11.2698
963 1 3.2 44.8 3.2 -11.8552
934 2 8 43.2 4.8 -9.86393
965 4 6.4 44.8 3.2 -13.4266
936 4 11.2 43.2 4.8 -13.3445
967 2 9.6 44.8 3.2 -9.86019
938 2 14.4 43.2 4.8 -9.90357
969 2 12.8 44.8 3.2 -9.85981
940 2 17.6 43.2 4.8 -9.86519
971 4 16 44.8 3.2 -13.4238
942 2 20.8 43.2 4.8 -9.88094
973 4 19.2 44.8 3.2 -13.3395
944 4 24 43.2 4.8 -13.4487
975 2 22.4 44.8 3.2 -9.93689
977 2 25.6 44.8 3.2 -9.9218
946 2 27.2 43.2 4.8 -9.93737
979 2 28.8 44.8 3.2 -9.97595
948 2 30.4 43.2 4.8 -9.9382
981 2 32 44.8 3.2 -9.89914
950 2 33.6 43.2 4.8 -9.83965
983 2 35.2 44.8 3.2 -9.86363
952 1 36.8 43.2 4.8 -11.7995
985 2 38.4 44.8 3.2 -9.86246
954 3 40 43.2 4.8 -11.3486
987 1 41.6 44.8 3.2 -11.8813
956 3 43.2 43.2 4.8 -11.2042
989 1 44.8 44.8 3.2 -11.8555
958 3 46.4 43.2 4.8 -11.2759
991 1 48 44.8 3.2 -11.8697
960 3 49.6 43.2 4.8 -11.3089
962 3 1.6 46.4 4.8 -11.2414
993 1 0 48 3.2 -11.8417
964 3 4.8 46.4 4.8 -11.3677
995 1 3.2 48 3.2 -11.8679
966 2 8 46.4 4.8 -9.88955
997 2 6.4 48 3.2 -9.8198
968 2 11.2 46.4 4.8 -9.83842
999 4 9.6 48 3.2 -13.3936
970 2 14.4 46.4 4.8 -9.91129
1001 2 12.8 48 3.2 -9.93756
972 3 17.6 46.4 4.8 -11.2892
1003 2 16 48 3.2 -9.80329
974 2 20.8 46.4 4.8 -9.9089
1005 4 19.2 48 3.2 -13.3382
976 2 24 46.4 4.8 -9.93557
1007 2 22.4 48 3.2 -9.90631
1009 2 25.6 48 3.2 -9.92838
978 2 27.2 46.4 4.8 -9.96831
1011 2 28.8 48 3.2 -9.92839
980 2 30.4 46.4 4.8 -9.94881
1013 1 32 48 3.2 -11.7805
982 2 33.6 46.4 4.8 -9.8875
1015 4 35.2 48 3.2 -13.3852
984 2 36.8 46.4 4.8 -9.8897
1017 1 38.4 48 3.2 -11.8455
986 3 40 46.4 4.8 -11.3642
1019 1 41.6 48 3.2 -11.8413
988 3 43.2 46.4 4.8 -11.2414
1021 1 44.8 48 3.2 -11.8416
990 3 46.4 46.4 4.8 -11.2414
1023 1 48 48 3.2 -11.8416
992 3 49.6 46.4 4.8 -11.2414
994 3 1.6 49.6 4.8 -11.2414
996 3 4.8 49.6 4.8 -11.3047
998 2 8 49.6 4.8 -9.86904
1000 3 11.2 49.6 4.8 -11.3614
1002 2 14.4 49.6 4.8 -9.83257
1004 2 17.6 49.6 4.8 -9.75131
1006 2 20.8 49.6 4.8 -9.80914
1008 2 24 49.6 4.8 -9.85525
1010 2 27.2 49.6 4.8 -9.88457
1012 2 30.4 49.6 4.8 -9.8692
1014 3 33.6 49.6 4.8 -11.3192
1016 3 36.8 49.6 4.8 -11.3908
1018 3 40 49.6 4.8 -11.2756
1020 3 43.2 49.6 4.8 -11.2414
1022 3 46.4 49.6 4.8 -11.2414
1024 3 49.6 49.6 4.8 -11.2414
1025 1 0 0 6.4 -11.8697
1026 3 1.6 1.6 8 -11.269
1027 1 3.2 0 6.4 -11.841
1028 3 4.8 1.6 8 -11.3286
1029 1 6.4 0 6.4 -11.8348
1030 2 8 1.6 8 -9.88563
1031 2 9.6 0 6.4 -9.83648
1032 2 11.2 1.6 8 -9.91891
1033 2 12.8 0 6.4 -9.86619
1034 2 14.4 1.6 8 -9.86797
1035 1 16 0 6.4 -11.7069
1036 2 17.6 1.6 8 -9.8491
1037 1 19.2 0 6.4 -11.7686
1038 3 20.8 1.6 8 -11.271
1039 1 22.4 0 6.4 -11.8257
1040 3 24 1.6 8 -11.3639
1041 1 25.6 0 6.4 -11.8132
1042 3 27.2 1.6 8 -11.4067
1043 1 28.8 0 6.4 -11.7928
1044 2 30.4 1.6 8 -9.84805
1045 1 32 0 6.4 -11.7669
1046 2 33.6 1.6 8 -9.84821
1047 4 35.2 0 6.4 -13.412
1048 3 36.8 1.6 8 -11.3373
1049 1 38.4 0 6.4 -11.8689
1050 3 40 1.6 8 -11.2759
1051 1 41.6 0 6.4 -11.8556
1052 3 43.2 1.6 8 -11.3362
1053 1 44.8 0 6.4 -11.8554
1054 3 46.4 1.6 8 -11.303
1055 1 48 0 6.4 -11.8413
1056 3 49.6 1.6 8 -11.3385
1057 4 0 3.2 6.4 -13.4054
1058 2 1.6 4.8 8 -9.77512
1059 1 3.2 3.2 6.4 -11.7983
1060 2 4.8 4.8 8 -9.8332
1061 2 6.4 3.2 6.4 -9.84963
1062 4 8 4.8 8 -13.3467
1063 4 9.6 3.2 6.4 -13.3675
1064 2 11.2 4.8 8 -9.89009
1065 4 12.8 3.2 6.4 -13.369
1066 2 14.4 4.8 8 -9.8149
1067 2 16 3.2 6.4 -9.84437
1068 2 17.6 4.8 8 -9.82127
1069 2 19.2 3.2 6.4 -9.81445
1070 2 20.8 4.8 8 -9.84649
1071 1 22.4 3.2 6.4 -11.827
1072 3 24 4.8 8 -11.3251
1073 1 25.6 3.2 6.4 -11.8523
1074 3 27.2 4.8 8 -11.4134
1075 1 28.8 3.2 6.4 -11.8591
1076 2 30.4 4.8 8 -9.89754
1077 2 32 3.2 6.4 -9.76437
1078 2 33.6 4.8 8 -9.87058
1079 4 35.2 3.2 6.4 -13.3549
1080 3 36.8 4.8 8 -11.2712
1081 1 38.4 3.2 6.4 -11.8835
1082 3 40 4.8 8 -11.2381
1083 1 41.6 3.2 6.4 -11.8552
1084 3 43.2 4.8 8 -11.3035
1085 4 44.8 3.2 6.4 -13.422
1086 3 46.4 4.8 8 -11.2652
1087 1 48 3.2 6.4 -11.8836
1088 3 49.6 4.8 8 -11.3023
1089 2 0 6.4 6.4 -9.83782
1090 2 1.6 8 8 -9.80079
1091 1 3.2 6.4 6.4 -11.7619
1092 3 4.8 8 8 -11.3328
1093 2 6.4 6.4 6.4 -9.8995
1094 1 8 8 8 -11.8243
1095 2 9.6 6.4 6.4 -9.90744
1096 4 11.2 8 8 -13.3482
1097 2 12.8 6.4 6.4 -9.88659
1098 1 14.4 8 8 -11.7219
1099 2 16 6.4 6.4 -9.85443
1100 2 17.6 8 8 -9.83772
1101 1 19.2 6.4 6.4 -11.7749
1102 2 20.8 8 8 -9.88072
1103 1 22.4 6.4 6.4 -11.7424