 # Bcc Mo oriented X=[100] Y=[010] Z=[001].
  
        8192  atoms
           4  atom types
 
      0.000000000000      51.200000000000  xlo xhi
      0.000000000000      51.200000000000  ylo yhi
      0.000000000000      51.200000000000  zlo zhi
 
 
 
Atoms # atomic

1 2 0.0 0.0 0.0
2 2 1.6 1.6 1.6
3 1 3.2 0.0 0.0
4 3 4.8 1.6 1.6
5 3 6.4 0.0 0.0
6 3 8.0 1.6 1.6
7 1 9.6 0.0 0.0
8 3 11.2 1.6 1.6
9 3 12.8 0.0 0.0
10 3 14.4 1.6 1.6
11 2 16.0 0.0 0.0
12 3 17.6 1.6 1.6
13 3 19.2 0.0 0.0
14 3 20.8 1.6 1.6
15 3 22.4 0.0 0.0
16 3 24.0 1.6 1.6
17 3 25.6 0.0 0.0
18 2 27.2 1.6 1.6
19 2 28.8 0.0 0.0
20 2 30.4 1.6 1.6
21 3 32.0 0.0 0.0
22 2 33.6 1.6 1.6
23 3 35.2 0.0 0.0
24 1 36.8 1.6 1.6
25 3 38.4 0.0 0.0
26 1 40.0 1.6 1.6
27 2 41.6 0.0 0.0
28 2 43.2 1.6 1.6
29 2 44.8 0.0 0.0
30 2 46.4 1.6 1.6
31 3 48.0 0.0 0.0
32 2 49.6 1.6 1.6
33 3 0.0 3.2 0.0
34 3 1.6 4.8 1.6
35 3 3.2 3.2 0.0
36 3 4.8 4.8 1.6
37 3 6.4 3.2 0.0
38 3 8.0 4.8 1.6
39 1 9.6 3.2 0.0
40 3 11.2 4.8 1.6
41 1 12.8 3.2 0.0
42 1 14.4 4.8 1.6
43 3 16.0 3.2 0.0
44 2 17.6 4.8 1.6
45 2 19.2 3.2 0.0
46 2 20.8 4.8 1.6
47 3 22.4 3.2 0.0
48 3 24.0 4.8 1.6
49 3 25.6 3.2 0.0
50 3 27.2 4.8 1.6
51 3 28.8 3.2 0.0
52 3 30.4 4.8 1.6
53 1 32.0 3.2 0.0
54 3 33.6 4.8 1.6
55 3 35.2 3.2 0.0
56 2 36.8 4.8 1.6
57 2 38.4 3.2 0.0
58 2 40.0 4.8 1.6
59 3 41.6 3.2 0.0
60 2 43.2 4.8 1.6
61 3 44.8 3.2 0.0
62 3 46.4 4.8 1.6
63 3 48.0 3.2 0.0
64 3 49.6 4.8 1.6
65 3 0.0 6.4 0.0
66 2 1.6 8.0 1.6
67 3 3.2 6.4 0.0
68 2 4.8 8.0 1.6
69 2 6.4 6.4 0.0
70 2 8.0 8.0 1.6
71 1 9.6 6.4 0.0
72 3 11.2 8.0 1.6
73 3 12.8 6.4 0.0
74 2 14.4 8.0 1.6
75 3 16.0 6.4 0.0
76 1 17.6 8.0 1.6
77 2 19.2 6.4 0.0
78 1 20.8 8.0 1.6
79 3 22.4 6.4 0.0
80 1 24.0 8.0 1.6
81 3 25.6 6.4 0.0
82 3 27.2 8.0 1.6
83 3 28.8 6.4 0.0
84 3 30.4 8.0 1.6
85 3 32.0 6.4 0.0
86 3 33.6 8.0 1.6
87 2 35.2 6.4 0.0
88 3 36.8 8.0 1.6
89 2 38.4 6.4 0.0
90 1 40.0 8.0 1.6
91 2 41.6 6.4 0.0
92 2 43.2 8.0 1.6
93 3 44.8 6.4 0.0
94 2 46.4 8.0 1.6
95 3 48.0 6.4 0.0
96 3 49.6 8.0 1.6
97 3 0.0 9.6 0.0
98 3 1.6 11.2 1.6
99 3 3.2 9.6 0.0
100 3 4.8 11.2 1.6
101 2 6.4 9.6 0.0
102 2 8.0 11.2 1.6
103 2 9.6 9.6 0.0
104 3 11.2 11.2 1.6
105 3 12.8 9.6 0.0
106 2 14.4 11.2 1.6
107 2 16.0 9.6 0.0
108 2 17.6 11.2 1.6
109 2 19.2 9.6 0.0
110 3 20.8 11.2 1.6
111 2 22.4 9.6 0.0
112 3 24.0 11.2 1.6
113 3 25.6 9.6 0.0
114 3 27.2 11.2 1.6
115 1 28.8 9.6 0.0
116 3 30.4 11.2 1.6
117 1 32.0 9.6 0.0
118 3 33.6 11.2 1.6
119 1 35.2 9.6 0.0
120 3 36.8 11.2 1.6
121 2 38.4 9.6 0.0
122 1 40.0 11.2 1.6
123 2 41.6 9.6 0.0
124 2 43.2 11.2 1.6
125 3 44.8 9.6 0.0
126 2 46.4 11.2 1.6
127 2 48.0 9.6 0.0
128 3 49.6 11.2 1.6
129 3 0.0 12.8 0.0
130 1 1.6 14.4 1.6
131 3 3.2 12.8 0.0
132 3 4.8 14.4 1.6
133 3 6.4 12.8 0.0
134 1 8.0 14.4 1.6
135 3 9.6 12.8 0.0
136 3 11.2 14.4 1.6
137 2 12.8 12.8 0.0
138 2 14.4 14.4 1.6
139 1 16.0 12.8 0.0
140 3 17.6 14.4 1.6
141 2 19.2 12.8 0.0
142 3 20.8 14.4 1.6
143 3 22.4 12.8 0.0
144 3 24.0 14.4 1.6
145 1 25.6 12.8 0.0
146 3 27.2 14.4 1.6
147 2 28.8 12.8 0.0
148 2 30.4 14.4 1.6
149 3 32.0 12.8 0.0
150 2 33.6 14.4 1.6
151 3 35.2 12.8 0.0
152 2 36.8 14.4 1.6
153 3 38.4 12.8 0.0
154 2 40.0 14.4 1.6
155 3 41.6 12.8 0.0
156 3 43.2 14.4 1.6
157 3 44.8 12.8 0.0
158 2 46.4 14.4 1.6
159 1 48.0 12.8 0.0
160 3 49.6 14.4 1.6
161 3 0.0 16.0 0.0
162 1 1.6 17.6 1.6
163 1 3.2 16.0 0.0
164 3 4.8 17.6 1.6
165 2 6.4 16.0 0.0
166 1 8.0 17.6 1.6
167 3 9.6 16.0 0.0
168 3 11.2 17.6 1.6
169 3 12.8 16.0 0.0
170 3 14.4 17.6 1.6
171 3 16.0 16.0 0.0
172 3 17.6 17.6 1.6
173 2 19.2 16.0 0.0
174 3 20.8 17.6 1.6
175 3 22.4 16.0 0.0
176 3 24.0 17.6 1.6
177 1 25.6 16.0 0.0
178 3 27.2 17.6 1.6
179 1 28.8 16.0 0.0
180 3 30.4 17.6 1.6
181 3 32.0 16.0 0.0
182 3 33.6 17.6 1.6
183 2 35.2 16.0 0.0
184 2 36.8 17.6 1.6
185 2 38.4 16.0 0.0
186 3 40.0 17.6 1.6
187 2 41.6 16.0 0.0
188 3 43.2 17.6 1.6
189 1 44.8 16.0 0.0
190 3 46.4 17.6 1.6
191 1 48.0 16.0 0.0
192 3 49.6 17.6 1.6
193 2 0.0 19.2 0.0
194 1 1.6 20.8 1.6
195 3 3.2 19.2 0.0
196 3 4.8 20.8 1.6
197 3 6.4 19.2 0.0
198 1 8.0 20.8 1.6
199 3 9.6 19.2 0.0
200 2 11.2 20.8 1.6
201 3 12.8 19.2 0.0
202 2 14.4 20.8 1.6
203 3 16.0 19.2 0.0
204 1 17.6 20.8 1.6
205 1 19.2 19.2 0.0
206 2 20.8 20.8 1.6
207 3 22.4 19.2 0.0
208 2 24.0 20.8 1.6
209 3 25.6 19.2 0.0
210 3 27.2 20.8 1.6
211 1 28.8 19.2 0.0
212 3 30.4 20.8 1.6
213 3 32.0 19.2 0.0
214 3 33.6 20.8 1.6
215 2 35.2 19.2 0.0
216 2 36.8 20.8 1.6
217 3 38.4 19.2 0.0
218 2 40.0 20.8 1.6
219 3 41.6 19.2 0.0
220 3 43.2 20.8 1.6
221 1 44.8 19.2 0.0
222 2 46.4 20.8 1.6
223 1 48.0 19.2 0.0
224 3 49.6 20.8 1.6
225 3 0.0 22.4 0.0
226 1 1.6 24.0 1.6
227 3 3.2 22.4 0.0
228 1 4.8 24.0 1.6
229 3 6.4 22.4 0.0
230 1 8.0 24.0 1.6
231 3 9.6 22.4 0.0
232 2 11.2 24.0 1.6
233 3 12.8 22.4 0.0
234 1 14.4 24.0 1.6
235 3 16.0 22.4 0.0
236 2 17.6 24.0 1.6
237 2 19.2 22.4 0.0
238 2 20.8 24.0 1.6
239 3 22.4 22.4 0.0
240 2 24.0 24.0 1.6
241 1 25.6 22.4 0.0
242 2 27.2 24.0 1.6
243 1 28.8 22.4 0.0
244 3 30.4 24.0 1.6
245 3 32.0 22.4 0.0
246 3 33.6 24.0 1.6
247 1 35.2 22.4 0.0
248 3 36.8 24.0 1.6
249 2 38.4 22.4 0.0
250 3 40.0 24.0 1.6
251 1 41.6 22.4 0.0
252 3 43.2 24.0 1.6
253 2 44.8 22.4 0.0
254 2 46.4 24.0 1.6
255 1 48.0 22.4 0.0
256 2 49.6 24.0 1.6
257 2 0.0 25.6 0.0
258 2 1.6 27.2 1.6
259 3 3.2 25.6 0.0
260 2 4.8 27.2 1.6
261 3 6.4 25.6 0.0
262 3 8.0 27.2 1.6
263 3 9.6 25.6 0.0
264 1 11.2 27.2 1.6
265 3 12.8 25.6 0.0
266 2 14.4 27.2 1.6
267 2 16.0 25.6 0.0
268 3 17.6 27.2 1.6
269 3 19.2 25.6 0.0
270 2 20.8 27.2 1.6
271 3 22.4 25.6 0.0
272 3 24.0 27.2 1.6
273 2 25.6 25.6 0.0
274 3 27.2 27.2 1.6
275 1 28.8 25.6 0.0
276 3 30.4 27.2 1.6
277 1 32.0 25.6 0.0
278 3 33.6 27.2 1.6
279 1 35.2 25.6 0.0
280 3 36.8 27.2 1.6
281 2 38.4 25.6 0.0
282 3 40.0 27.2 1.6
283 3 41.6 25.6 0.0
284 2 43.2 27.2 1.6
285 3 44.8 25.6 0.0
286 3 46.4 27.2 1.6
287 2 48.0 25.6 0.0
288 3 49.6 27.2 1.6
289 2 0.0 28.8 0.0
290 2 1.6 30.4 1.6
291 2 3.2 28.8 0.0
292 3 4.8 30.4 1.6
293 1 6.4 28.8 0.0
294 3 8.0 30.4 1.6
295 3 9.6 28.8 0.0
296 1 11.2 30.4 1.6
297 3 12.8 28.8 0.0
298 3 14.4 30.4 1.6
299 2 16.0 28.8 0.0
300 3 17.6 30.4 1.6
301 3 19.2 28.8 0.0
302 3 20.8 30.4 1.6
303 1 22.4 28.8 0.0
304 3 24.0 30.4 1.6
305 1 25.6 28.8 0.0
306 3 27.2 30.4 1.6
307 1 28.8 28.8 0.0
308 3 30.4 30.4 1.6
309 1 32.0 28.8 0.0
310 3 33.6 30.4 1.6
311 1 35.2 28.8 0.0
312 3 36.8 30.4 1.6
313 1 38.4 28.8 0.0
314 3 40.0 30.4 1.6
315 3 41.6 28.8 0.0
316 3 43.2 30.4 1.6
317 3 44.8 28.8 0.0
318 3 46.4 30.4 1.6
319 1 48.0 28.8 0.0
320 3 49.6 30.4 1.6
321 1 0.0 32.0 0.0
322 3 1.6 33.6 1.6
323 2 3.2 32.0 0.0
324 2 4.8 33.6 1.6
325 3 6.4 32.0 0.0
326 3 8.0 33.6 1.6
327 3 9.6 32.0 0.0
328 3 11.2 33.6 1.6
329 3 12.8 32.0 0.0
330 2 14.4 33.6 1.6
331 2 16.0 32.0 0.0
332 2 17.6 33.6 1.6
333 3 19.2 32.0 0.0
334 3 20.8 33.6 1.6
335 1 22.4 32.0 0.0
336 3 24.0 33.6 1.6
337 1 25.6 32.0 0.0
338 3 27.2 33.6 1.6
339 1 28.8 32.0 0.0
340 3 30.4 33.6 1.6
341 1 32.0 32.0 0.0
342 3 33.6 33.6 1.6
343 3 35.2 32.0 0.0
344 1 36.8 33.6 1.6
345 3 38.4 32.0 0.0
346 3 40.0 33.6 1.6
347 3 41.6 32.0 0.0
348 3 43.2 33.6 1.6
349 3 44.8 32.0 0.0
350 3 46.4 33.6 1.6
351 2 48.0 32.0 0.0
352 3 49.6 33.6 1.6
353 1 0.0 35.2 0.0
354 3 1.6 36.8 1.6
355 1 3.2 35.2 0.0
356 2 4.8 36.8 1.6
357 1 6.4 35.2 0.0
358 3 8.0 36.8 1.6
359 3 9.6 35.2 0.0
360 3 11.2 36.8 1.6
361 1 12.8 35.2 0.0
362 3 14.4 36.8 1.6
363 3 16.0 35.2 0.0
364 3 17.6 36.8 1.6
365 3 19.2 35.2 0.0
366 2 20.8 36.8 1.6
367 1 22.4 35.2 0.0
368 3 24.0 36.8 1.6
369 3 25.6 35.2 0.0
370 3 27.2 36.8 1.6
371 3 28.8 35.2 0.0
372 3 30.4 36.8 1.6
373 1 32.0 35.2 0.0
374 3 33.6 36.8 1.6
375 3 35.2 35.2 0.0
376 1 36.8 36.8 1.6
377 3 38.4 35.2 0.0
378 3 40.0 36.8 1.6
379 2 41.6 35.2 0.0
380 3 43.2 36.8 1.6
381 1 44.8 35.2 0.0
382 3 46.4 36.8 1.6
383 3 48.0 35.2 0.0
384 3 49.6 36.8 1.6
385 1 0.0 38.4 0.0
386 3 1.6 40.0 1.6
387 1 3.2 38.4 0.0
388 2 4.8 40.0 1.6
389 1 6.4 38.4 0.0
390 3 8.0 40.0 1.6
391 2 9.6 38.4 0.0
392 3 11.2 40.0 1.6
393 1 12.8 38.4 0.0
394 2 14.4 40.0 1.6
395 3 16.0 38.4 0.0
396 2 17.6 40.0 1.6
397 3 19.2 38.4 0.0
398 1 20.8 40.0 1.6
399 2 22.4 38.4 0.0
400 3 24.0 40.0 1.6
401 3 25.6 38.4 0.0
402 3 27.2 40.0 1.6
403 2 28.8 38.4 0.0
404 2 30.4 40.0 1.6
405 2 32.0 38.4 0.0
406 1 33.6 40.0 1.6
407 3 35.2 38.4 0.0
408 2 36.8 40.0 1.6
409 3 38.4 38.4 0.0
410 2 40.0 40.0 1.6
411 3 41.6 38.4 0.0
412 2 43.2 40.0 1.6
413 1 44.8 38.4 0.0
414 2 46.4 40.0 1.6
415 1 48.0 38.4 0.0
416 3 49.6 40.0 1.6
417 1 0.0 41.6 0.0
418 3 1.6 43.2 1.6
419 3 3.2 41.6 0.0
420 2 4.8 43.2 1.6
421 2 6.4 41.6 0.0
422 2 8.0 43.2 1.6
423 3 9.6 41.6 0.0
424 2 11.2 43.2 1.6
425 3 12.8 41.6 0.0
426 2 14.4 43.2 1.6
427 3 16.0 41.6 0.0
428 2 17.6 43.2 1.6
429 3 19.2 41.6 0.0
430 1 20.8 43.2 1.6
431 3 22.4 41.6 0.0
432 1 24.0 43.2 1.6
433 3 25.6 41.6 0.0
434 2 27.2 43.2 1.6
435 1 28.8 41.6 0.0
436 3 30.4 43.2 1.6
437 2 32.0 41.6 0.0
438 2 33.6 43.2 1.6
439 2 35.2 41.6 0.0
440 2 36.8 43.2 1.6
441 2 38.4 41.6 0.0
442 1 40.0 43.2 1.6
443 3 41.6 41.6 0.0
444 1 43.2 43.2 1.6
445 2 44.8 41.6 0.0
446 3 46.4 43.2 1.6
447 2 48.0 41.6 0.0
448 2 49.6 43.2 1.6
449 1 0.0 44.8 0.0
450 3 1.6 46.4 1.6
451 3 3.2 44.8 0.0
452 2 4.8 46.4 1.6
453 3 6.4 44.8 0.0
454 2 8.0 46.4 1.6
455 3 9.6 44.8 0.0
456 3 11.2 46.4 1.6
457 2 12.8 44.8 0.0
458 1 14.4 46.4 1.6
459 3 16.0 44.8 0.0
460 1 17.6 46.4 1.6
461 3 19.2 44.8 0.0
462 3 20.8 46.4 1.6
463 3 22.4 44.8 0.0
464 3 24.0 46.4 1.6
465 3 25.6 44.8 0.0
466 2 27.2 46.4 1.6
467 1 28.8 44.8 0.0
468 3 30.4 46.4 1.6
469 3 32.0 44.8 0.0
470 3 33.6 46.4 1.6
471 3 35.2 44.8 0.0
472 1 36.8 46.4 1.6
473 2 38.4 44.8 0.0
474 3 40.0 46.4 1.6
475 3 41.6 44.8 0.0
476 2 43.2 46.4 1.6
477 2 44.8 44.8 0.0
478 3 46.4 46.4 1.6
479 2 48.0 44.8 0.0
480 2 49.6 46.4 1.6
481 2 0.0 48.0 0.0
482 3 1.6 49.6 1.6
483 3 3.2 48.0 0.0
484 3 4.8 49.6 1.6
485 2 6.4 48.0 0.0
486 3 8.0 49.6 1.6
487 1 9.6 48.0 0.0
488 3 11.2 49.6 1.6
489 3 12.8 48.0 0.0
490 3 14.4 49.6 1.6
491 3 16.0 48.0 0.0
492 3 17.6 49.6 1.6
493 3 19.2 48.0 0.0
494 3 20.8 49.6 1.6
495 1 22.4 48.0 0.0
496 3 24.0 49.6 1.6
497 1 25.6 48.0 0.0
498 3 27.2 49.6 1.6
499 1 28.8 48.0 0.0
500 2 30.4 49.6 1.6
501 3 32.0 48.0 0.0
502 1 33.6 49.6 1.6
503 3 35.2 48.0 0.0
504 1 36.8 49.6 1.6
505 3 38.4 48.0 0.0
506 1 40.0 49.6 1.6
507 2 41.6 48.0 0.0
508 2 43.2 49.6 1.6
509 1 44.8 48.0 0.0
510 2 46.4 49.6 1.6
511 2 48.0 48.0 0.0
512 1 49.6 49.6 1.6
513 3 0.0 0.0 3.2
514 2 1.6 1.6 4.8
515 1 3.2 0.0 3.2
516 3 4.8 1.6 4.8
517 3 6.4 0.0 3.2
518 3 8.0 1.6 4.8
519 1 9.6 0.0 3.2
520 3 11.2 1.6 4.8
521 3 12.8 0.0 3.2
522 1 14.4 1.6 4.8
523 2 16.0 0.0 3.2
524 3 17.6 1.6 4.8
525 1 19.2 0.0 3.2
526 2 20.8 1.6 4.8
527 3 22.4 0.0 3.2
528 3 24.0 1.6 4.8
529 2 25.6 0.0 3.2
530 3 27.2 1.6 4.8
531 2 28.8 0.0 3.2
532 2 30.4 1.6 4.8
533 2 32.0 0.0 3.2
534 2 33.6 1.6 4.8
535 3 35.2 0.0 3.2
536 3 36.8 1.6 4.8
537 3 38.4 0.0 3.2
538 3 40.0 1.6 4.8
539 3 41.6 0.0 3.2
540 1 43.2 1.6 4.8
541 2 44.8 0.0 3.2
542 3 46.4 1.6 4.8
543 3 48.0 0.0 3.2
544 3 49.6 1.6 4.8
545 1 0.0 3.2 3.2
546 3 1.6 4.8 4.8
547 1 3.2 3.2 3.2
548 3 4.8 4.8 4.8
549 3 6.4 3.2 3.2
550 3 8.0 4.8 4.8
551 3 9.6 3.2 3.2
552 3 11.2 4.8 4.8
553 3 12.8 3.2 3.2
554 1 14.4 4.8 4.8
555 3 16.0 3.2 3.2
556 3 17.6 4.8 4.8
557 1 19.2 3.2 3.2
558 3 20.8 4.8 4.8
559 1 22.4 3.2 3.2
560 3 24.0 4.8 4.8
561 1 25.6 3.2 3.2
562 3 27.2 4.8 4.8
563 1 28.8 3.2 3.2
564 3 30.4 4.8 4.8
565 2 32.0 3.2 3.2
566 3 33.6 4.8 4.8
567 3 35.2 3.2 3.2
568 2 36.8 4.8 4.8
569 3 38.4 3.2 3.2
570 3 40.0 4.8 4.8
571 2 41.6 3.2 3.2
572 3 43.2 4.8 4.8
573 1 44.8 3.2 3.2
574 3 46.4 4.8 4.8
575 1 48.0 3.2 3.2
576 3 49.6 4.8 4.8
577 1 0.0 6.4 3.2
578 2 1.6 8.0 4.8
579 1 3.2 6.4 3.2
580 3 4.8 8.0 4.8
581 1 6.4 6.4 3.2
582 2 8.0 8.0 4.8
583 2 9.6 6.4 3.2
584 2 11.2 8.0 4.8
585 3 12.8 6.4 3.2
586 1 14.4 8.0 4.8
587 2 16.0 6.4 3.2
588 2 17.6 8.0 4.8
589 2 19.2 6.4 3.2
590 1 20.8 8.0 4.8
591 2 22.4 6.4 3.2
592 3 24.0 8.0 4.8
593 3 25.6 6.4 3.2
594 3 27.2 8.0 4.8
595 1 28.8 6.4 3.2
596 2 30.4 8.0 4.8
597 3 32.0 6.4 3.2
598 2 33.6 8.0 4.8
599 2 35.2 6.4 3.2
600 1 36.8 8.0 4.8
601 2 38.4 6.4 3.2
602 1 40.0 8.0 4.8
603 3 41.6 6.4 3.2
604 3 43.2 8.0 4.8
605 2 44.8 6.4 3.2
606 1 46.4 8.0 4.8
607 1 48.0 6.4 3.2
608 2 49.6 8.0 4.8
609 1 0.0 9.6 3.2
610 2 1.6 11.2 4.8
611 1 3.2 9.6 3.2
612 3 4.8 11.2 4.8
613 2 6.4 9.6 3.2
614 1 8.0 11.2 4.8
615 3 9.6 9.6 3.2
616 2 11.2 11.2 4.8
617 3 12.8 9.6 3.2
618 2 14.4 11.2 4.8
619 2 16.0 9.6 3.2
620 3 17.6 11.2 4.8
621 2 19.2 9.6 3.2
622 3 20.8 11.2 4.8
623 2 22.4 9.6 3.2
624 3 24.0 11.2 4.8
625 3 25.6 9.6 3.2
626 3 27.2 11.2 4.8
627 3 28.8 9.6 3.2
628 2 30.4 11.2 4.8
629 1 32.0 9.6 3.2
630 3 33.6 11.2 4.8
631 2 35.2 9.6 3.2
632 3 36.8 11.2 4.8
633 3 38.4 9.6 3.2
634 1 40.0 11.2 4.8
635 2 41.6 9.6 3.2
636 3 43.2 11.2 4.8
637 2 44.8 9.6 3.2
638 1 46.4 11.2 4.8
639 2 48.0 9.6 3.2
640 3 49.6 11.2 4.8
641 2 0.0 12.8 3.2
642 1 1.6 14.4 4.8
643 3 3.2 12.8 3.2
644 3 4.8 14.4 4.8
645 3 6.4 12.8 3.2
646 1 8.0 14.4 4.8
647 3 9.6 12.8 3.2
648 2 11.2 14.4 4.8
649 1 12.8 12.8 3.2
650 1 14.4 14.4 4.8
651 2 16.0 12.8 3.2
652 2 17.6 14.4 4.8
653 1 19.2 12.8 3.2
654 3 20.8 14.4 4.8
655 2 22.4 12.8 3.2
656 3 24.0 14.4 4.8
657 1 25.6 12.8 3.2
658 3 27.2 14.4 4.8
659 3 28.8 12.8 3.2
660 3 30.4 14.4 4.8
661 2 32.0 12.8 3.2
662 3 33.6 14.4 4.8
663 1 35.2 12.8 3.2
664 1 36.8 14.4 4.8
665 2 38.4 12.8 3.2
666 2 40.0 14.4 4.8
667 3 41.6 12.8 3.2
668 3 43.2 14.4 4.8
669 3 44.8 12.8 3.2
670 2 46.4 14.4 4.8
671 1 48.0 12.8 3.2
672 3 49.6 14.4 4.8
673 3 0.0 16.0 3.2
674 1 1.6 17.6 4.8
675 3 3.2 16.0 3.2
676 3 4.8 17.6 4.8
677 3 6.4 16.0 3.2
678 1 8.0 17.6 4.8
679 3 9.6 16.0 3.2
680 3 11.2 17.6 4.8
681 2 12.8 16.0 3.2
682 2 14.4 17.6 4.8
683 2 16.0 16.0 3.2
684 2 17.6 17.6 4.8
685 1 19.2 16.0 3.2
686 3 20.8 17.6 4.8
687 2 22.4 16.0 3.2
688 2 24.0 17.6 4.8
689 2 25.6 16.0 3.2
690 3 27.2 17.6 4.8
691 2 28.8 16.0 3.2
692 3 30.4 17.6 4.8
693 1 32.0 16.0 3.2
694 2 33.6 17.6 4.8
695 1 35.2 16.0 3.2
696 3 36.8 17.6 4.8
697 3 38.4 16.0 3.2
698 3 40.0 17.6 4.8
699 3 41.6 16.0 3.2
700 3 43.2 17.6 4.8
701 3 44.8 16.0 3.2
702 2 46.4 17.6 4.8
703 3 48.0 16.0 3.2
704 3 49.6 17.6 4.8
705 3 0.0 19.2 3.2
706 1 1.6 20.8 4.8
707 3 3.2 19.2 3.2
708 3 4.8 20.8 4.8
709 3 6.4 19.2 3.2
710 2 8.0 20.8 4.8
711 1 9.6 19.2 3.2
712 3 11.2 20.8 4.8
713 1 12.8 19.2 3.2
714 2 14.4 20.8 4.8
715 2 16.0 19.2 3.2
716 2 17.6 20.8 4.8
717 3 19.2 19.2 3.2
718 2 20.8 20.8 4.8
719 3 22.4 19.2 3.2
720 2 24.0 20.8 4.8
721 2 25.6 19.2 3.2
722 3 27.2 20.8 4.8
723 1 28.8 19.2 3.2
724 2 30.4 20.8 4.8
725 1 32.0 19.2 3.2
726 3 33.6 20.8 4.8
727 1 35.2 19.2 3.2
728 3 36.8 20.8 4.8
729 3 38.4 19.2 3.2
730 2 40.0 20.8 4.8
731 3 41.6 19.2 3.2
732 1 43.2 20.8 4.8
733 3 44.8 19.2 3.2
734 2 46.4 20.8 4.8
735 2 48.0 19.2 3.2
736 3 49.6 20.8 4.8
737 2 0.0 22.4 3.2
738 2 1.6 24.0 4.8
739 3 3.2 22.4 3.2
740 3 4.8 24.0 4.8
741 3 6.4 22.4 3.2
742 3 8.0 24.0 4.8
743 3 9.6 22.4 3.2
744 3 11.2 24.0 4.8
745 2 12.8 22.4 3.2
746 1 14.4 24.0 4.8
747 2 16.0 22.4 3.2
748 2 17.6 24.0 4.8
749 2 19.2 22.4 3.2
750 2 20.8 24.0 4.8
751 1 22.4 22.4 3.2
752 3 24.0 24.0 4.8
753 2 25.6 22.4 3.2
754 3 27.2 24.0 4.8
755 3 28.8 22.4 3.2
756 1 30.4 24.0 4.8
757 3 32.0 22.4 3.2
758 3 33.6 24.0 4.8
759 1 35.2 22.4 3.2
760 2 36.8 24.0 4.8
761 1 38.4 22.4 3.2
762 3 40.0 24.0 4.8
763 1 41.6 22.4 3.2
764 3 43.2 24.0 4.8
765 2 44.8 22.4 3.2
766 2 46.4 24.0 4.8
767 2 48.0 22.4 3.2
768 3 49.6 24.0 4.8
769 2 0.0 25.6 3.2
770 2 1.6 27.2 4.8
771 2 3.2 25.6 3.2
772 3 4.8 27.2 4.8
773 3 6.4 25.6 3.2
774 3 8.0 27.2 4.8
775 3 9.6 25.6 3.2
776 2 11.2 27.2 4.8
777 3 12.8 25.6 3.2
778 3 14.4 27.2 4.8
779 3 16.0 25.6 3.2
780 3 17.6 27.2 4.8
781 2 19.2 25.6 3.2
782 2 20.8 27.2 4.8
783 2 22.4 25.6 3.2
784 3 24.0 27.2 4.8
785 2 25.6 25.6 3.2
786 3 27.2 27.2 4.8
787 2 28.8 25.6 3.2
788 1 30.4 27.2 4.8
789 2 32.0 25.6 3.2
790 3 33.6 27.2 4.8
791 2 35.2 25.6 3.2
792 2 36.8 27.2 4.8
793 1 38.4 25.6 3.2
794 2 40.0 27.2 4.8
795 2 41.6 25.6 3.2
796 3 43.2 27.2 4.8
797 1 44.8 25.6 3.2
798 3 46.4 27.2 4.8
799 1 48.0 25.6 3.2
800 2 49.6 27.2 4.8
801 2 0.0 28.8 3.2
802 1 1.6 30.4 4.8
803 3 3.2 28.8 3.2
804 1 4.8 30.4 4.8
805 3 6.4 28.8 3.2
806 1 8.0 30.4 4.8
807 3 9.6 28.8 3.2
808 1 11.2 30.4 4.8
809 2 12.8 28.8 3.2
810 3 14.4 30.4 4.8
811 1 16.0 28.8 3.2
812 3 17.6 30.4 4.8
813 1 19.2 28.8 3.2
814 2 20.8 30.4 4.8
815 1 22.4 28.8 3.2
816 1 24.0 30.4 4.8
817 3 25.6 28.8 3.2
818 3 27.2 30.4 4.8
819 3 28.8 28.8 3.2
820 3 30.4 30.4 4.8
821 3 32.0 28.8 3.2
822 2 33.6 30.4 4.8
823 3 35.2 28.8 3.2
824 2 36.8 30.4 4.8
825 2 38.4 28.8 3.2
826 2 40.0 30.4 4.8
827 2 41.6 28.8 3.2
828 3 43.2 30.4 4.8
829 1 44.8 28.8 3.2
830 2 46.4 30.4 4.8
831 3 48.0 28.8 3.2
832 1 49.6 30.4 4.8
833 2 0.0 32.0 3.2
834 1 1.6 33.6 4.8
835 3 3.2 32.0 3.2
836 1 4.8 33.6 4.8
837 3 6.4 32.0 3.2
838 1 8.0 33.6 4.8
839 3 9.6 32.0 3.2
840 3 11.2 33.6 4.8
841 3 12.8 32.0 3.2
842 2 14.4 33.6 4.8
843 1 16.0 32.0 3.2
844 3 17.6 33.6 4.8
845 3 19.2 32.0 3.2
846 1 20.8 33.6 4.8
847 3 22.4 32.0 3.2
848 1 24.0 33.6 4.8
849 3 25.6 32.0 3.2
850 2 27.2 33.6 4.8
851 3 28.8 32.0 3.2
852 3 30.4 33.6 4.8
853 1 32.0 32.0 3.2
854 2 33.6 33.6 4.8
855 2 35.2 32.0 3.2
856 1 36.8 33.6 4.8
857 3 38.4 32.0 3.2
858 3 40.0 33.6 4.8
859 1 41.6 32.0 3.2
860 3 43.2 33.6 4.8
861 2 44.8 32.0 3.2
862 2 46.4 33.6 4.8
863 3 48.0 32.0 3.2
864 2 49.6 33.6 4.8
865 3 0.0 35.2 3.2
866 3 1.6 36.8 4.8
867 3 3.2 35.2 3.2
868 3 4.8 36.8 4.8
869 3 6.4 35.2 3.2
870 2 8.0 36.8 4.8
871 3 9.6 35.2 3.2
872 2 11.2 36.8 4.8
873 1 12.8 35.2 3.2
874 3 14.4 36.8 4.8
875 1 16.0 35.2 3.2
876 3 17.6 36.8 4.8
877 2 19.2 35.2 3.2
878 1 20.8 36.8 4.8
879 2 22.4 35.2 3.2
880 1 24.0 36.8 4.8
881 3 25.6 35.2 3.2
882 3 27.2 36.8 4.8
883 2 28.8 35.2 3.2
884 3 30.4 36.8 4.8
885 3 32.0 35.2 3.2
886 3 33.6 36.8 4.8
887 3 35.2 35.2 3.2
888 1 36.8 36.8 4.8
889 3 38.4 35.2 3.2
890 3 40.0 36.8 4.8
891 1 41.6 35.2 3.2
892 3 43.2 36.8 4.8
893 1 44.8 35.2 3.2
894 3 46.4 36.8 4.8
895 3 48.0 35.2 3.2
896 2 49.6 36.8 4.8
897 1 0.0 38.4 3.2
898 2 1.6 40.0 4.8
899 1 3.2 38.4 3.2
900 3 4.8 40.0 4.8
901 3 6.4 38.4 3.2
902 3 8.0 40.0 4.8
903 2 9.6 38.4 3.2
904 3 11.2 40.0 4.8
905 1 12.8 38.4 3.2
906 3 14.4 40.0 4.8
907 2 16.0 38.4 3.2
908 3 17.6 40.0 4.8
909 3 19.2 38.4 3.2
910 1 20.8 40.0 4.8
911 3 22.4 38.4 3.2
912 2 24.0 40.0 4.8
913 3 25.6 38.4 3.2
914 2 27.2 40.0 4.8
915 1 28.8 38.4 3.2
916 3 30.4 40.0 4.8
917 2 32.0 38.4 3.2
918 1 33.6 40.0 4.8
919 3 35.2 38.4 3.2
920 1 36.8 40.0 4.8
921 3 38.4 38.4 3.2
922 2 40.0 40.0 4.8
923 1 41.6 38.4 3.2
924 3 43.2 40.0 4.8
925 3 44.8 38.4 3.2
926 3 46.4 40.0 4.8
927 1 48.0 38.4 3.2
928 3 49.6 40.0 4.8
929 1 0.0 41.6 3.2
930 3 1.6 43.2 4.8
931 1 3.2 41.6 3.2
932 2 4.8 43.2 4.8
933 1 6.4 41.6 3.2
934 2 8.0 43.2 4.8
935 2 9.6 41.6 3.2
936 1 11.2 43.2 4.8
937 1 12.8 41.6 3.2
938 2 14.4 43.2 4.8
939 1 16.0 41.6 3.2
940 3 17.6 43.2 4.8
941 2 19.2 41.6 3.2
942 3 20.8 43.2 4.8
943 3 22.4 41.6 3.2
944 2 24.0 43.2 4.8
945 3 25.6 41.6 3.2
946 2 27.2 43.2 4.8
947 2 28.8 41.6 3.2
948 2 30.4 43.2 4.8
949 3 32.0 41.6 3.2
950 2 33.6 43.2 4.8
951 2 35.2 41.6 3.2
952 3 36.8 43.2 4.8
953 3 38.4 41.6 3.2
954 3 40.0 43.2 4.8
955 2 41.6 41.6 3.2
956 3 43.2 43.2 4.8
957 3 44.8 41.6 3.2
958 3 46.4 43.2 4.8
959 2 48.0 41.6 3.2
960 3 49.6 43.2 4.8
961 3 0.0 44.8 3.2
962 3 1.6 46.4 4.8
963 1 3.2 44.8 3.2
964 2 4.8 46.4 4.8
965 2 6.4 44.8 3.2
966 2 8.0 46.4 4.8
967 3 9.6 44.8 3.2
968 3 11.2 46.4 4.8
969 3 12.8 44.8 3.2
970 1 14.4 46.4 4.8
971 3 16.0 44.8 3.2
972 2 17.6 46.4 4.8
973 3 19.2 44.8 3.2
974 3 20.8 46.4 4.8
975 2 22.4 44.8 3.2
976 3 24.0 46.4 4.8
977 2 25.6 44.8 3.2
978 3 27.2 46.4 4.8
979 3 28.8 44.8 3.2
980 3 30.4 46.4 4.8
981 2 32.0 44.8 3.2
982 2 33.6 46.4 4.8
983 2 35.2 44.8 3.2
984 3 36.8 46.4 4.8
985 3 38.4 44.8 3.2
986 3 40.0 46.4 4.8
987 3 41.6 44.8 3.2
988 3 43.2 46.4 4.8
989 1 44.8 44.8 3.2
990 3 46.4 46.4 4.8
991 3 48.0 44.8 3.2
992 2 49.6 46.4 4.8
993 3 0.0 48.0 3.2
994 3 1.6 49.6 4.8
995 3 3.2 48.0 3.2
996 3 4.8 49.6 4.8
997 1 6.4 48.0 3.2
998 3 8.0 49.6 4.8
999 3 9.6 48.0 3.2
1000 3 11.2 49.6 4.8
1001 3 12.8 48.0 3.2
1002 1 14.4 49.6 4.8
1003 2 16.0 48.0 3.2
1004 2 17.6 49.6 4.8
1005 3 19.2 48.0 3.2
1006 3 20.8 49.6 4.8
1007 1 22.4 48.0 3.2
1008 3 24.0 49.6 4.8
1009 1 25.6 48.0 3.2
1010 3 27.2 49.6 4.8
1011 2 28.8 48.0 3.2
1012 2 30.4 49.6 4.8
1013 2 32.0 48.0 3.2
1014 3 33.6 49.6 4.8
1015 3 35.2 48.0 3.2
1016 3 36.8 49.6 4.8
1017 3 38.4 48.0 3.2
1018 2 40.0 49.6 4.8
1019 1 41.6 48.0 3.2
1020 3 43.2 49.6 4.8
1021 1 44.8 48.0 3.2
1022 3 46.4 49.6 4.8
1023 3 48.0 48.0 3.2
1024 3 49.6 49.6 4.8
1025 1 0.0 0.0 6.4
1026 3 1.6 1.6 8.0
1027 3 3.2 0.0 6.4
1028 3 4.8 1.6 8.0
1029 3 6.4 0.0 6.4
1030 3 8.0 1.6 8.0
1031 1 9.6 0.0 6.4
1032 3 11.2 1.6 8.0
1033 3 12.8 0.0 6.4
1034 1 14.4 1.6 8.0
1035 2 16.0 0.0 6.4
1036 2 17.6 1.6 8.0
1037 1 19.2 0.0 6.4
1038 2 20.8 1.6 8.0
1039 3 22.4 0.0 6.4
1040 3 24.0 1.6 8.0
1041 3 25.6 0.0 6.4
1042 3 27.2 1.6 8.0
1043 2 28.8 0.0 6.4
1044 2 30.4 1.6 8.0
1045 1 32.0 0.0 6.4
1046 3 33.6 1.6 8.0
1047 1 35.2 0.0 6.4
1048 2 36.8 1.6 8.0
1049 1 38.4 0.0 6.4
1050 3 40.0 1.6 8.0
1051 2 41.6 0.0 6.4
1052 1 43.2 1.6 8.0
1053 3 44.8 0.0 6.4
1054 3 46.4 1.6 8.0
1055 1 48.0 0.0 6.4
1056 3 49.6 1.6 8.0
1057 3 0.0 3.2 6.4
1058 3 1.6 4.8 8.0
1059 1 3.2 3.2 6.4
1060 2 4.8 4.8 8.0
1061 3 6.4 3.2 6.4
1062 1 8.0 4.8 8.0
1063 3 9.6 3.2 6.4
1064 1 11.2 4.8 8.0
1065 3 12.8 3.2 6.4
1066 2 14.4 4.8 8.0
1067 3 16.0 3.2 6.4
1068 3 17.6 4.8 8.0
1069 3 19.2 3.2 6.4
1070 3 20.8 4.8 8.0
1071 2 22.4 3.2 6.4
1072 3 24.0 4.8 8.0
1073 1 25.6 3.2 6.4
1074 3 27.2 4.8 8.0
1075 2 28.8 3.2 6.4
1076 2 30.4 4.8 8.0
1077 2 32.0 3.2 6.4
1078 2 33.6 4.8 8.0
1079 3 35.2 3.2 6.4
1080 3 36.8 4.8 8.0
1081 1 38.4 3.2 6.4
1082 3 40.0 4.8 8.0
1083 2 41.6 3.2 6.4
1084 2 43.2 4.8 8.0
1085 3 44.8 3.2 6.4
1086 3 46.4 4.8 8.0
1087 1 48.0 3.2 6.4
1088 2 49.6 4.8 8.0
1089 3 0.0 6.4 6.4
1090 2 1.6 8.0 8.0
1091 3 3.2 6.4 6.4
1092 2 4.8 8.0 8.0
1093 2 6.4 6.4 6.4
1094 1 8.0 8.0 8.0
1095 3 9.6 6.4 6.4
1096 1 11.2 8.0 8.0
1097 3 12.8 6.4 6.4
1098 1 14.4 8.0 8.0
1099 3 16.0 6.4 6.4
1100 2 17.6 8.0 8.0
1101 3 19.2 6.4 6.4
1102 1 20.8 8.0 8.0
1103 3 22.4 6.4 6.4
1104 2 24.0 8.0 8.0
1105 1 25.6 6.4 6.4
1106 3 27.2 8.0 8.0
1107 1 28.8 6.4 6.4
1108 3 30.4 8.0 8.0
1109 1 32.0 6.4 6.4
1110 2 33.6 8.0 8.0
1111 2 35.2 6.4 6.4
1112 2 36.8 8.0 8.0
1113 3 38.4 6.4 6.4
1114 1 40.0 8.0 8.0
1115 3 41.6 6.4 6.4
1116 3 43.2 8.0 8.0
1117 3 44.8 6.4 6.4
1118 2 46.4 8.0 8.0
1119 3 48.0 6.4 6.4
1120 1 49.6 8.0 8.0
1121 3 0.0 9.6 6.4
1122 2 1.6 11.2 8.0
1123 1 3.2 9.6 6.4
1124 3 4.8 11.2 8.0
1125 3 6.4 9.6 6.4
1126 1 8.0 11.2 8.0
1127 3 9.6 9.6 6.4
1128 1 11.2 11.2 8.0
1129 3 12.8 9.6 6.4
1130 1 14.4 11.2 8.0
1131 3 16.0 9.6 6.4
1132 3 17.6 11.2 8.0
1133 2 19.2 9.6 6.4
1134 3 20.8 11.2 8.0
1135 3 22.4 9.6 6.4
1136 3 24.0 11.2 8.0
1137 2 25.6 9.6 6.4
1138 2 27.2 11.2 8.0
1139 2 28.8 9.6 6.4
1140 1 30.4 11.2 8.0
1141 2 32.0 9.6 6.4
1142 2 33.6 11.2 8.0
1143 3 35.2 9.6 6.4
1144 3 36.8 11.2 8.0
1145 3 38.4 9.6 6.4
1146 2 40.0 11.2 8.0
1147 2 41.6 9.6 6.4
1148 3 43.2 11.2 8.0
1149 3 44.8 9.6 6.4
1150 3 46.4 11.2 8.0
1151 2 48.0 9.6 6.4
1152 2 49.6 11.2 8.0
1153 2 0.0 12.8 6.4
1154 3 1.6 14.4 8.0
1155 3 3.2 12.8 6.4
1156 2 4.8 14.4 8.0
1157 3 6.4 12.8 6.4
1158 1 8.0 14.4 8.0
1159 3 9.6 12.8 6.4
1160 1 11.2 14.4 8.0
1161 3 12.8 12.8 6.4
1162 1 14.4 14.4 8.0
1163 3 16.0 12.8 6.4
1164 3 17.6 14.4 8.0
1165 1 19.2 12.8 6.4
1166 3 20.8 14.4 8.0
1167 1 22.4 12.8 6.4
1168 3 24.0 14.4 8.0
1169 1 25.6 12.8 6.4
1170 3 27.2 14.4 8.0
1171 1 28.8 12.8 6.4
1172 1 30.4 14.4 8.0
1173 3 32.0 12.8 6.4
1174 1 33.6 14.4 8.0
1175 3 35.2 12.8 6.4
1176 2 36.8 14.4 8.0
1177 2 38.4 12.8 6.4
1178 2 40.0 14.4 8.0
1179 3 41.6 12.8 6.4
1180 2 43.2 14.4 8.0
1181 1 44.8 12.8 6.4
1182 3 46.4 14.4 8.0
1183 2 48.0 12.8 6.4
1184 3 49.6 14.4 8.0
1185 3 0.0 16.0 6.4
1186 3 1.6 17.6 8.0
1187 3 3.2 16.0 6.4
1188 3 4.8 17.6 8.0
1189 3 6.4 16.0 6.4
1190 3 8.0 17.6 8.0
1191 3 9.6 16.0 6.4
1192 3 11.2 17.6 8.0
1193 3 12.8 16.0 6.4
1194 2 14.4 17.6 8.0
1195 3 16.0 16.0 6.4
1196 2 17.6 17.6 8.0
1197 1 19.2 16.0 6.4
1198 3 20.8 17.6 8.0
1199 1 22.4 16.0 6.4
1200 2 24.0 17.6 8.0
1201 1 25.6 16.0 6.4
1202 2 27.2 17.6 8.0
1203 3 28.8 16.0 6.4
1204 3 30.4 17.6 8.0
1205 3 32.0 16.0 6.4
1206 2 33.6 17.6 8.0
1207 2 35.2 16.0 6.4
1208 3 36.8 17.6 8.0
1209 2 38.4 16.0 6.4
1210 2 40.0 17.6 8.0
1211 1 41.6 16.0 6.4
1212 3 43.2 17.6 8.0
1213 2 44.8 16.0 6.4
1214 3 46.4 17.6 8.0
1215 1 48.0 16.0 6.4
1216 3 49.6 17.6 8.0
1217 3 0.0 19.2 6.4
1218 2 1.6 20.8 8.0
1219 3 3.2 19.2 6.4
1220 2 4.8 20.8 8.0
1221 2 6.4 19.2 6.4
1222 2 8.0 20.8 8.0
1223 2 9.6 19.2 6.4
1224 2 11.2 20.8 8.0
1225 2 12.8 19.2 6.4
1226 1 14.4 20.8 8.0
1227 2 16.0 19.2 6.4
1228 3 17.6 20.8 8.0
1229 1 19.2 19.2 6.4
1230 2 20.8 20.8 8.0
1231 3 22.4 19.2 6.4
1232 1 24.0 20.8 8.0
1233 2 25.6 19.2 6.4
1234 1 27.2 20.8 8.0
1235 2 28.8 19.2 6.4
1236 1 30.4 20.8 8.0
1237 3 32.0 19.2 6.4
1238 3 33.6 20.8 8.0
1239 1 35.2 19.2 6.4
1240 3 36.8 20.8 8.0
1241 2 38.4 19.2 6.4
1242 3 40.0 20.8 8.0
1243 1 41.6 19.2 6.4
1244 1 43.2 20.8 8.0
1245 2 44.8 19.2 6.4
1246 2 46.4 20.8 8.0
1247 1 48.0 19.2 6.4
1248 3 49.6 20.8 8.0
1249 3 0.0 22.4 6.4
1250 3 1.6 24.0 8.0
1251 3 3.2 22.4 6.4
1252 1 4.8 24.0 8.0
1253 2 6.4 22.4 6.4
1254 1 8.0 24.0 8.0
1255 3 9.6 22.4 6.4
1256 3 11.2 24.0 8.0
1257 3 12.8 22.4 6.4
1258 1 14.4 24.0 8.0
1259 3 16.0 22.4 6.4
1260 3 17.6 24.0 8.0
1261 3 19.2 22.4 6.4
1262 2 20.8 24.0 8.0
1263 1 22.4 22.4 6.4
1264 2 24.0 24.0 8.0
1265 2 25.6 22.4 6.4
1266 3 27.2 24.0 8.0
1267 2 28.8 22.4 6.4
1268 3 30.4 24.0 8.0
1269 3 32.0 22.4 6.4
1270 3 33.6 24.0 8.0
1271 1 35.2 22.4 6.4
1272 3 36.8 24.0 8.0
1273 3 38.4 22.4 6.4
1274 1 40.0 24.0 8.0
1275 2 41.6 22.4 6.4
1276 1 43.2 24.0 8.0
1277 2 44.8 22.4 6.4
1278 2 46.4 24.0 8.0
1279 2 48.0 22.4 6.4
1280 2 49.6 24.0 8.0
1281 2 0.0 25.6 6.4
1282 1 1.6 27.2 8.0
1283 2 3.2 25.6 6.4
1284 1 4.8 27.2 8.0
1285 3 6.4 25.6 6.4
1286 1 8.0 27.2 8.0
1287 3 9.6 25.6 6.4
1288 1 11.2 27.2 8.0
1289 3 12.8 25.6 6.4
1290 2 14.4 27.2 8.0
1291 3 16.0 25.6 6.4
1292 3 17.6 27.2 8.0
1293 3 19.2 25.6 6.4
1294 3 20.8 27.2 8.0
1295 2 22.4 25.6 6.4
1296 2 24.0 27.2 8.0
1297 3 25.6 25.6 6.4
1298 3 27.2 27.2 8.0
1299 3 28.8 25.6 6.4
1300 2 30.4 27.2 8.0
1301 2 32.0 25.6 6.4
1302 2 33.6 27.2 8.0
1303 2 35.2 25.6 6.4
1304 2 36.8 27.2 8.0
1305 2 38.4 25.6 6.4
1306 3 40.0 27.2 8.0
1307 3 41.6 25.6 6.4
1308 3 43.2 27.2 8.0
1309 3 44.8 25.6 6.4
1310 3 46.4 27.2 8.0
1311 2 48.0 25.6 6.4
1312 2 49.6 27.2 8.0
1313 3 0.0 28.8 6.4
1314 3 1.6 30.4 8.0
1315 3 3.2 28.8 6.4
1316 1 4.8 30.4 8.0
1317 3 6.4 28.8 6.4
1318 1 8.0 30.4 8.0
1319 3 9.6 28.8 6.4
1320 1 11.2 30.4 8.0
1321 2 12.8 28.8 6.4
1322 2 14.4 30.4 8.0
1323 1 16.0 28.8 6.4
1324 3 17.6 30.4 8.0
1325 1 19.2 28.8 6.4
1326 3 20.8 30.4 8.0
1327 2 22.4 28.8 6.4
1328 1 24.0 30.4 8.0
1329 3 25.6 28.8 6.4
1330 3 27.2 30.4 8.0
1331 1 28.8 28.8 6.4
1332 3 30.4 30.4 8.0
1333 3 32.0 28.8 6.4
1334 3 33.6 30.4 8.0
1335 2 35.2 28.8 6.4
1336 1 36.8 30.4 8.0
1337 2 38.4 28.8 6.4
1338 2 40.0 30.4 8.0
1339 1 41.6 28.8 6.4
1340 3 43.2 30.4 8.0
1341 1 44.8 28.8 6.4
1342 3 46.4 30.4 8.0
1343 3 48.0 28.8 6.4
1344 3 49.6 30.4 8.0
1345 3 0.0 32.0 6.4
1346 1 1.6 33.6 8.0
1347 3 3.2 32.0 6.4
1348 1 4.8 33.6 8.0
1349 3 6.4 32.0 6.4
1350 3 8.0 33.6 8.0
1351 3 9.6 32.0 6.4
1352 3 11.2 33.6 8.0
1353 3 12.8 32.0 6.4
1354 3 14.4 33.6 8.0
1355 3 16.0 32.0 6.4
1356 2 17.6 33.6 8.0
1357 3 19.2 32.0 6.4
1358 2 20.8 33.6 8.0
1359 3 22.4 32.0 6.4
1360 3 24.0 33.6 8.0
1361 3 25.6 32.0 6.4
1362 3 27.2 33.6 8.0
1363 1 28.8 32.0 6.4
1364 3 30.4 33.6 8.0
1365 1 32.0 32.0 6.4
1366 3 33.6 33.6 8.0
1367 3 35.2 32.0 6.4
1368 1 36.8 33.6 8.0
1369 3 38.4 32.0 6.4
1370 3 40.0 33.6 8.0
1371 1 41.6 32.0 6.4
1372 3 43.2 33.6 8.0
1373 2 44.8 32.0 6.4
1374 2 46.4 33.6 8.0
1375 3 48.0 32.0 6.4
1376 3 49.6 33.6 8.0
1377 2 0.0 35.2 6.4
1378 3 1.6 36.8 8.0
1379 3 3.2 35.2 6.4
1380 1 4.8 36.8 8.0
1381 3 6.4 35.2 6.4
1382 3 8.0 36.8 8.0
1383 3 9.6 35.2 6.4
1384 3 11.2 36.8 8.0
1385 1 12.8 35.2 6.4
1386 3 14.4 36.8 8.0
1387 3 16.0 35.2 6.4
1388 3 17.6 36.8 8.0
1389 2 19.2 35.2 6.4
1390 2 20.8 36.8 8.0
1391 3 22.4 35.2 6.4
1392 2 24.0 36.8 8.0
1393 2 25.6 35.2 6.4
1394 3 27.2 36.8 8.0
1395 1 28.8 35.2 6.4
1396 3 30.4 36.8 8.0
1397 1 32.0 35.2 6.4
1398 2 33.6 36.8 8.0
1399 3 35.2 35.2 6.4
1400 1 36.8 36.8 8.0
1401 3 38.4 35.2 6.4
1402 3 40.0 36.8 8.0
1403 1 41.6 35.2 6.4
1404 3 43.2 36.8 8.0
1405 2 44.8 35.2 6.4
1406 3 46.4 36.8 8.0
1407 3 48.0 35.2 6.4
1408 3 49.6 36.8 8.0
1409 2 0.0 38.4 6.4
1410 2 1.6 40.0 8.0
1411 3 3.2 38.4 6.4
1412 1 4.8 40.0 8.0
1413 3 6.4 38.4 6.4
1414 3 8.0 40.0 8.0
1415 1 9.6 38.4 6.4
1416 3 11.2 40.0 8.0
1417 1 12.8 38.4 6.4
1418 3 14.4 40.0 8.0
1419 1 16.0 38.4 6.4
1420 3 17.6 40.0 8.0
1421 3 19.2 38.4 6.4
1422 1 20.8 40.0 8.0
1423 3 22.4 38.4 6.4
1424 2 24.0 40.0 8.0
1425 3 25.6 38.4 6.4
1426 2 27.2 40.0 8.0
1427 3 28.8 38.4 6.4
1428 3 30.4 40.0 8.0
1429 3 32.0 38.4 6.4
1430 1 33.6 40.0 8.0
1431 3 35.2 38.4 6.4
1432 2 36.8 40.0 8.0
1433 3 38.4 38.4 6.4
1434 3 40.0 40.0 8.0
1435 1 41.6 38.4 6.4
1436 3 43.2 40.0 8.0
1437 3 44.8 38.4 6.4
1438 3 46.4 40.0 8.0
1439 1 48.0 38.4 6.4
1440 3 49.6 40.0 8.0
1441 1 0.0 41.6 6.4
1442 3 1.6 43.2 8.0
1443 3 3.2 41.6 6.4
1444 1 4.8 43.2 8.0
1445 3 6.4 41.6 6.4
1446 1 8.0 43.2 8.0
1447 2 9.6 41.6 6.4
1448 3 11.2 43.2 8.0
1449 3 12.8 41.6 6.4
1450 3 14.4 43.2 8.0
1451 1 16.0 41.6 6.4
1452 2 17.6 43.2 8.0
1453 3 19.2 41.6 6.4
1454 3 20.8 43.2 8.0
1455 3 22.4 41.6 6.4
1456 3 24.0 43.2 8.0
1457 2 25.6 41.6 6.4
1458 2 27.2 43.2 8.0
1459 2 28.8 41.6 6.4
1460 3 30.4 43.2 8.0
1461 3 32.0 41.6 6.4
1462 3 33.6 43.2 8.0
1463 3 35.2 41.6 6.4
1464 2 36.8 43.2 8.0
1465 3 38.4 41.6 6.4
1466 3 40.0 43.2 8.0
1467 1 41.6 41.6 6.4
1468 3 43.2 43.2 8.0
1469 1 44.8 41.6 6.4
1470 3 46.4 43.2 8.0
1471 1 48.0 41.6 6.4
1472 3 49.6 43.2 8.0
1473 3 0.0 44.8 6.4
1474 3 1.6 46.4 8.0
1475 3 3.2 44.8 6.4
1476 1 4.8 46.4 8.0
1477 3 6.4 44.8 6.4
1478 1 8.0 46.4 8.0
1479 3 9.6 44.8 6.4
1480 1 11.2 46.4 8.0
1481 2 12.8 44.8 6.4
1482 3 14.4 46.4 8.0
1483 3 16.0 44.8 6.4
1484 2 17.6 46.4 8.0
1485 2 19.2 44.8 6.4
1486 2 20.8 46.4 8.0
1487 1 22.4 44.8 6.4
1488 3 24.0 46.4 8.0
1489 2 25.6 44.8 6.4
1490 2 27.2 46.4 8.0
1491 2 28.8 44.8 6.4
1492 2 30.4 46.4 8.0
1493 1 32.0 44.8 6.4
1494 3 33.6 46.4 8.0
1495 3 35.2 44.8 6.4
1496 2 36.8 46.4 8.0
1497 2 38.4 44.8 6.4
1498 2 40.0 46.4 8.0
1499 1 41.6 44.8 6.4
1500 3 43.2 46.4 8.0