ITEM: TIMESTEP
0
ITEM: NUMBER OF ATOMS
8192
ITEM: BOX BOUNDS pp pp pp
0.0000000000000000e+00 5.1200000000000003e+01
0.0000000000000000e+00 5.1200000000000003e+01
0.0000000000000000e+00 5.1200000000000003e+01
ITEM: ATOMS id type x y z c_eng
1 2 0 0 0 -9.98109
2 2 1.6 1.6 1.6 -9.94981
3 1 3.2 0 0 -11.9284
4 3 4.8 1.6 1.6 -11.5541
5 3 6.4 0 0 -11.5446
6 3 8 1.6 1.6 -11.6057
7 1 9.6 0 0 -11.8891
8 3 11.2 1.6 1.6 -11.5527
9 3 12.8 0 0 -11.5084
10 3 14.4 1.6 1.6 -11.5208
11 2 16 0 0 -10.0463
12 3 17.6 1.6 1.6 -11.5573
13 3 19.2 0 0 -11.5184
14 3 20.8 1.6 1.6 -11.4624
15 3 22.4 0 0 -11.5806
16 3 24 1.6 1.6 -11.5411
17 3 25.6 0 0 -11.4998
18 2 27.2 1.6 1.6 -9.98668
19 2 28.8 0 0 -9.99506
20 2 30.4 1.6 1.6 -9.96311
21 3 32 0 0 -11.4688
22 2 33.6 1.6 1.6 -9.95137
23 3 35.2 0 0 -11.5191
24 1 36.8 1.6 1.6 -11.9395
25 3 38.4 0 0 -11.4269
26 1 40 1.6 1.6 -11.8538
27 2 41.6 0 0 -9.98344
28 2 43.2 1.6 1.6 -9.90573
29 2 44.8 0 0 -9.98801
30 2 46.4 1.6 1.6 -9.96045
31 3 48 0 0 -11.453
32 2 49.6 1.6 1.6 -9.93407
33 3 0 3.2 0 -11.5066
34 3 1.6 4.8 1.6 -11.494
35 3 3.2 3.2 0 -11.5319
36 3 4.8 4.8 1.6 -11.5383
37 3 6.4 3.2 0 -11.5998
38 3 8 4.8 1.6 -11.5435
39 1 9.6 3.2 0 -11.9211
40 3 11.2 4.8 1.6 -11.4858
41 1 12.8 3.2 0 -11.8309
42 1 14.4 4.8 1.6 -11.8631
43 3 16 3.2 0 -11.4361
44 2 17.6 4.8 1.6 -9.89041
45 2 19.2 3.2 0 -9.97864
46 2 20.8 4.8 1.6 -9.95218
47 3 22.4 3.2 0 -11.4743
48 3 24 4.8 1.6 -11.4678
49 3 25.6 3.2 0 -11.4584
50 3 27.2 4.8 1.6 -11.5103
51 3 28.8 3.2 0 -11.4286
52 3 30.4 4.8 1.6 -11.5631
53 1 32 3.2 0 -11.9675
54 3 33.6 4.8 1.6 -11.5988
55 3 35.2 3.2 0 -11.47
56 2 36.8 4.8 1.6 -10.0085
57 2 38.4 3.2 0 -9.98985
58 2 40 4.8 1.6 -9.9611
59 3 41.6 3.2 0 -11.4829
60 2 43.2 4.8 1.6 -10.0168
61 3 44.8 3.2 0 -11.5387
62 3 46.4 4.8 1.6 -11.5106
63 3 48 3.2 0 -11.5003
64 3 49.6 4.8 1.6 -11.4501
65 3 0 6.4 0 -11.5912
66 2 1.6 8 1.6 -9.94106
67 3 3.2 6.4 0 -11.5778
68 2 4.8 8 1.6 -9.9593
69 2 6.4 6.4 0 -9.91204
70 2 8 8 1.6 -9.96448
71 1 9.6 6.4 0 -11.8865
72 3 11.2 8 1.6 -11.5641
73 3 12.8 6.4 0 -11.4498
74 2 14.4 8 1.6 -9.9088
75 3 16 6.4 0 -11.3539
76 1 17.6 8 1.6 -11.765
77 2 19.2 6.4 0 -9.88881
78 1 20.8 8 1.6 -11.7449
79 3 22.4 6.4 0 -11.4033
80 1 24 8 1.6 -11.9028
81 3 25.6 6.4 0 -11.5536
82 3 27.2 8 1.6 -11.5849
83 3 28.8 6.4 0 -11.4776
84 3 30.4 8 1.6 -11.5362
85 3 32 6.4 0 -11.4866
86 3 33.6 8 1.6 -11.5278
87 2 35.2 6.4 0 -9.99587
88 3 36.8 8 1.6 -11.3967
89 2 38.4 6.4 0 -9.96076
90 1 40 8 1.6 -11.776
91 2 41.6 6.4 0 -9.95889
92 2 43.2 8 1.6 -9.93192
93 3 44.8 6.4 0 -11.5102
94 2 46.4 8 1.6 -9.9346
95 3 48 6.4 0 -11.5001
96 3 49.6 8 1.6 -11.4647
97 3 0 9.6 0 -11.5086
98 3 1.6 11.2 1.6 -11.4876
99 3 3.2 9.6 0 -11.5653
100 3 4.8 11.2 1.6 -11.5894
101 2 6.4 9.6 0 -10.0125
102 2 8 11.2 1.6 -9.96622
103 2 9.6 9.6 0 -9.95374
104 3 11.2 11.2 1.6 -11.564
105 3 12.8 9.6 0 -11.515
106 2 14.4 11.2 1.6 -9.95039
107 2 16 9.6 0 -9.91667
108 2 17.6 11.2 1.6 -9.93382
109 2 19.2 9.6 0 -9.88227
110 3 20.8 11.2 1.6 -11.5041
111 2 22.4 9.6 0 -9.9867
112 3 24 11.2 1.6 -11.5346
113 3 25.6 9.6 0 -11.4841
114 3 27.2 11.2 1.6 -11.5888
115 1 28.8 9.6 0 -11.9694
116 3 30.4 11.2 1.6 -11.4937
117 1 32 9.6 0 -11.8918
118 3 33.6 11.2 1.6 -11.4637
119 1 35.2 9.6 0 -11.9087
120 3 36.8 11.2 1.6 -11.4835
121 2 38.4 9.6 0 -9.84578
122 1 40 11.2 1.6 -11.8231
123 2 41.6 9.6 0 -9.84666
124 2 43.2 11.2 1.6 -10.0105
125 3 44.8 9.6 0 -11.4839
126 2 46.4 11.2 1.6 -9.93707
127 2 48 9.6 0 -9.99175
128 3 49.6 11.2 1.6 -11.5008
129 3 0 12.8 0 -11.515
130 1 1.6 14.4 1.6 -11.8639
131 3 3.2 12.8 0 -11.5763
132 3 4.8 14.4 1.6 -11.5355
133 3 6.4 12.8 0 -11.5546
134 1 8 14.4 1.6 -11.9127
135 3 9.6 12.8 0 -11.5567
136 3 11.2 14.4 1.6 -11.5434
137 2 12.8 12.8 0 -9.9867
138 2 14.4 14.4 1.6 -9.96239
139 1 16 12.8 0 -11.8961
140 3 17.6 14.4 1.6 -11.4513
141 2 19.2 12.8 0 -9.95766
142 3 20.8 14.4 1.6 -11.5633
143 3 22.4 12.8 0 -11.4956
144 3 24 14.4 1.6 -11.5534
145 1 25.6 12.8 0 -11.9386
146 3 27.2 14.4 1.6 -11.464
147 2 28.8 12.8 0 -9.95009
148 2 30.4 14.4 1.6 -10.0259
149 3 32 12.8 0 -11.5411
150 2 33.6 14.4 1.6 -9.97841
151 3 35.2 12.8 0 -11.4649
152 2 36.8 14.4 1.6 -9.8804
153 3 38.4 12.8 0 -11.4533
154 2 40 14.4 1.6 -9.9972
155 3 41.6 12.8 0 -11.5546
156 3 43.2 14.4 1.6 -11.6003
157 3 44.8 12.8 0 -11.5452
158 2 46.4 14.4 1.6 -9.97813
159 1 48 12.8 0 -11.8775
160 3 49.6 14.4 1.6 -11.4616
161 3 0 16 0 -11.3609
162 1 1.6 17.6 1.6 -11.8572
163 1 3.2 16 0 -11.8439
164 3 4.8 17.6 1.6 -11.5099
165 2 6.4 16 0 -9.93587
166 1 8 17.6 1.6 -11.8018
167 3 9.6 16 0 -11.456
168 3 11.2 17.6 1.6 -11.4641
169 3 12.8 16 0 -11.5879
170 3 14.4 17.6 1.6 -11.5038
171 3 16 16 0 -11.5449
172 3 17.6 17.6 1.6 -11.4835
173 2 19.2 16 0 -9.93343
174 3 20.8 17.6 1.6 -11.5984
175 3 22.4 16 0 -11.5643
176 3 24 17.6 1.6 -11.6009
177 1 25.6 16 0 -11.9352
178 3 27.2 17.6 1.6 -11.4932
179 1 28.8 16 0 -11.9117
180 3 30.4 17.6 1.6 -11.4416
181 3 32 16 0 -11.5206
182 3 33.6 17.6 1.6 -11.4146
183 2 35.2 16 0 -9.99017
184 2 36.8 17.6 1.6 -10.0149
185 2 38.4 16 0 -10.0165
186 3 40 17.6 1.6 -11.5959
187 2 41.6 16 0 -9.97881
188 3 43.2 17.6 1.6 -11.6337
189 1 44.8 16 0 -11.9137
190 3 46.4 17.6 1.6 -11.4481
191 1 48 16 0 -11.8605
192 3 49.6 17.6 1.6 -11.5515
193 2 0 19.2 0 -9.96364
194 1 1.6 20.8 1.6 -11.8911
195 3 3.2 19.2 0 -11.4946
196 3 4.8 20.8 1.6 -11.5115
197 3 6.4 19.2 0 -11.5437
198 1 8 20.8 1.6 -11.8679
199 3 9.6 19.2 0 -11.4283
200 2 11.2 20.8 1.6 -9.97692
201 3 12.8 19.2 0 -11.5084
202 2 14.4 20.8 1.6 -9.9134
203 3 16 19.2 0 -11.5051
204 1 17.6 20.8 1.6 -11.8522
205 1 19.2 19.2 0 -11.9164
206 2 20.8 20.8 1.6 -9.963
207 3 22.4 19.2 0 -11.5996
208 2 24 20.8 1.6 -10.0066
209 3 25.6 19.2 0 -11.4748
210 3 27.2 20.8 1.6 -11.4602
211 1 28.8 19.2 0 -11.9163
212 3 30.4 20.8 1.6 -11.5253
213 3 32 19.2 0 -11.4871
214 3 33.6 20.8 1.6 -11.5018
215 2 35.2 19.2 0 -9.93136
216 2 36.8 20.8 1.6 -9.93944
217 3 38.4 19.2 0 -11.5304
218 2 40 20.8 1.6 -9.98677
219 3 41.6 19.2 0 -11.5088
220 3 43.2 20.8 1.6 -11.4399
221 1 44.8 19.2 0 -11.949
222 2 46.4 20.8 1.6 -9.96496
223 1 48 19.2 0 -11.8379
224 3 49.6 20.8 1.6 -11.4318
225 3 0 22.4 0 -11.3814
226 1 1.6 24 1.6 -11.8496
227 3 3.2 22.4 0 -11.5135
228 1 4.8 24 1.6 -11.9145
229 3 6.4 22.4 0 -11.4566
230 1 8 24 1.6 -11.9722
231 3 9.6 22.4 0 -11.5346
232 2 11.2 24 1.6 -9.93612
233 3 12.8 22.4 0 -11.4862
234 1 14.4 24 1.6 -11.869
235 3 16 22.4 0 -11.4442
236 2 17.6 24 1.6 -9.95029
237 2 19.2 22.4 0 -9.95398
238 2 20.8 24 1.6 -9.98234
239 3 22.4 22.4 0 -11.4909
240 2 24 24 1.6 -9.97645
241 1 25.6 22.4 0 -11.8693
242 2 27.2 24 1.6 -9.95977
243 1 28.8 22.4 0 -11.8802
244 3 30.4 24 1.6 -11.4701
245 3 32 22.4 0 -11.5118
246 3 33.6 24 1.6 -11.5129
247 1 35.2 22.4 0 -11.905
248 3 36.8 24 1.6 -11.3566
249 2 38.4 22.4 0 -9.87382
250 3 40 24 1.6 -11.4609
251 1 41.6 22.4 0 -11.9022
252 3 43.2 24 1.6 -11.4199
253 2 44.8 22.4 0 -9.89598
254 2 46.4 24 1.6 -9.95073
255 1 48 22.4 0 -11.8649
256 2 49.6 24 1.6 -9.95075
257 2 0 25.6 0 -10.0146
259 3 3.2 25.6 0 -11.453
261 3 6.4 25.6 0 -11.4783
263 3 9.6 25.6 0 -11.5859
265 3 12.8 25.6 0 -11.5272
267 2 16 25.6 0 -10.0204
269 3 19.2 25.6 0 -11.5867
271 3 22.4 25.6 0 -11.5409
273 2 25.6 25.6 0 -9.91674
275 1 28.8 25.6 0 -11.8807
277 1 32 25.6 0 -11.9013
279 1 35.2 25.6 0 -11.9303
281 2 38.4 25.6 0 -9.8717
283 3 41.6 25.6 0 -11.558
285 3 44.8 25.6 0 -11.5472
287 2 48 25.6 0 -9.86602
258 2 1.6 27.2 1.6 -9.96802
289 2 0 28.8 0 -9.91237
260 2 4.8 27.2 1.6 -10.0234
291 2 3.2 28.8 0 -9.99344
262 3 8 27.2 1.6 -11.4991
293 1 6.4 28.8 0 -11.9781
264 1 11.2 27.2 1.6 -11.952
295 3 9.6 28.8 0 -11.4798
266 2 14.4 27.2 1.6 -9.9832
297 3 12.8 28.8 0 -11.5191
268 3 17.6 27.2 1.6 -11.5049
299 2 16 28.8 0 -9.96957
270 2 20.8 27.2 1.6 -9.96859
301 3 19.2 28.8 0 -11.5078
272 3 24 27.2 1.6 -11.5033
303 1 22.4 28.8 0 -11.8672
305 1 25.6 28.8 0 -11.9132
274 3 27.2 27.2 1.6 -11.527
307 1 28.8 28.8 0 -11.8898
276 3 30.4 27.2 1.6 -11.4353
309 1 32 28.8 0 -11.8776
278 3 33.6 27.2 1.6 -11.5101
311 1 35.2 28.8 0 -11.9493
280 3 36.8 27.2 1.6 -11.4685
313 1 38.4 28.8 0 -11.9621
282 3 40 27.2 1.6 -11.5407
315 3 41.6 28.8 0 -11.5583
284 2 43.2 27.2 1.6 -10.0495
317 3 44.8 28.8 0 -11.5225
286 3 46.4 27.2 1.6 -11.4859
319 1 48 28.8 0 -11.9656
288 3 49.6 27.2 1.6 -11.5
290 2 1.6 30.4 1.6 -9.98263
321 1 0 32 0 -11.8695
292 3 4.8 30.4 1.6 -11.5193
323 2 3.2 32 0 -9.96016
294 3 8 30.4 1.6 -11.5252
325 3 6.4 32 0 -11.496
296 1 11.2 30.4 1.6 -11.9208
327 3 9.6 32 0 -11.5892
298 3 14.4 30.4 1.6 -11.481
329 3 12.8 32 0 -11.542
300 3 17.6 30.4 1.6 -11.5228
331 2 16 32 0 -9.99744
302 3 20.8 30.4 1.6 -11.4967
333 3 19.2 32 0 -11.5281
304 3 24 30.4 1.6 -11.3781
335 1 22.4 32 0 -11.8874
337 1 25.6 32 0 -11.9211
306 3 27.2 30.4 1.6 -11.549
339 1 28.8 32 0 -11.9221
308 3 30.4 30.4 1.6 -11.4558
341 1 32 32 0 -11.844
310 3 33.6 30.4 1.6 -11.5092
343 3 35.2 32 0 -11.5245
312 3 36.8 30.4 1.6 -11.5269
345 3 38.4 32 0 -11.5376
314 3 40 30.4 1.6 -11.5936
347 3 41.6 32 0 -11.5448
316 3 43.2 30.4 1.6 -11.5269
349 3 44.8 32 0 -11.5025
318 3 46.4 30.4 1.6 -11.5746
351 2 48 32 0 -9.9914
320 3 49.6 30.4 1.6 -11.4635
322 3 1.6 33.6 1.6 -11.4437
353 1 0 35.2 0 -11.9118
324 2 4.8 33.6 1.6 -9.99733
355 1 3.2 35.2 0 -11.8889
326 3 8 33.6 1.6 -11.5241
357 1 6.4 35.2 0 -11.8418
328 3 11.2 33.6 1.6 -11.5552
359 3 9.6 35.2 0 -11.51
330 2 14.4 33.6 1.6 -9.96306
361 1 12.8 35.2 0 -11.9575
332 2 17.6 33.6 1.6 -9.98769
363 3 16 35.2 0 -11.4955
334 3 20.8 33.6 1.6 -11.4709
365 3 19.2 35.2 0 -11.5125
336 3 24 33.6 1.6 -11.5193
367 1 22.4 35.2 0 -11.8663
369 3 25.6 35.2 0 -11.5677
338 3 27.2 33.6 1.6 -11.6103
371 3 28.8 35.2 0 -11.5199
340 3 30.4 33.6 1.6 -11.5458
373 1 32 35.2 0 -11.9665
342 3 33.6 33.6 1.6 -11.4921
375 3 35.2 35.2 0 -11.5662
344 1 36.8 33.6 1.6 -11.9566
377 3 38.4 35.2 0 -11.5258
346 3 40 33.6 1.6 -11.5421
379 2 41.6 35.2 0 -9.99837
348 3 43.2 33.6 1.6 -11.4854
381 1 44.8 35.2 0 -11.9342
350 3 46.4 33.6 1.6 -11.5715
383 3 48 35.2 0 -11.3997
352 3 49.6 33.6 1.6 -11.5972
354 3 1.6 36.8 1.6 -11.3834
385 1 0 38.4 0 -11.8398
356 2 4.8 36.8 1.6 -9.91177
387 1 3.2 38.4 0 -11.851
358 3 8 36.8 1.6 -11.5448
389 1 6.4 38.4 0 -11.8871
360 3 11.2 36.8 1.6 -11.481
391 2 9.6 38.4 0 -9.97186
362 3 14.4 36.8 1.6 -11.4048
393 1 12.8 38.4 0 -11.9172
364 3 17.6 36.8 1.6 -11.5885
395 3 16 38.4 0 -11.5689
366 2 20.8 36.8 1.6 -9.96227
397 3 19.2 38.4 0 -11.5855
368 3 24 36.8 1.6 -11.5421
399 2 22.4 38.4 0 -9.97817
401 3 25.6 38.4 0 -11.6279
370 3 27.2 36.8 1.6 -11.6566
403 2 28.8 38.4 0 -9.95491
372 3 30.4 36.8 1.6 -11.5376
405 2 32 38.4 0 -9.94841
374 3 33.6 36.8 1.6 -11.4962
407 3 35.2 38.4 0 -11.4849
376 1 36.8 36.8 1.6 -11.9723
409 3 38.4 38.4 0 -11.5872
378 3 40 36.8 1.6 -11.5167
411 3 41.6 38.4 0 -11.5074
380 3 43.2 36.8 1.6 -11.4481
413 1 44.8 38.4 0 -11.8938
382 3 46.4 36.8 1.6 -11.4665
415 1 48 38.4 0 -11.8786
384 3 49.6 36.8 1.6 -11.4608
386 3 1.6 40 1.6 -11.2681
417 1 0 41.6 0 -11.9103
388 2 4.8 40 1.6 -9.92565
419 3 3.2 41.6 0 -11.4611
390 3 8 40 1.6 -11.5408
421 2 6.4 41.6 0 -9.98842
392 3 11.2 40 1.6 -11.4987
423 3 9.6 41.6 0 -11.6192
394 2 14.4 40 1.6 -9.95994
425 3 12.8 41.6 0 -11.4476
396 2 17.6 40 1.6 -9.94702
427 3 16 41.6 0 -11.5148
398 1 20.8 40 1.6 -11.9137
429 3 19.2 41.6 0 -11.4869
400 3 24 40 1.6 -11.5443
431 3 22.4 41.6 0 -11.5273
433 3 25.6 41.6 0 -11.5654
402 3 27.2 40 1.6 -11.5455
435 1 28.8 41.6 0 -11.8937
404 2 30.4 40 1.6 -9.96832
437 2 32 41.6 0 -9.98125
406 1 33.6 40 1.6 -11.8607
439 2 35.2 41.6 0 -10.0001
408 2 36.8 40 1.6 -9.90193
441 2 38.4 41.6 0 -10.0068
410 2 40 40 1.6 -9.96601
443 3 41.6 41.6 0 -11.4317
412 2 43.2 40 1.6 -9.98879
445 2 44.8 41.6 0 -9.96936
414 2 46.4 40 1.6 -9.99553
447 2 48 41.6 0 -9.86902
416 3 49.6 40 1.6 -11.3011
418 3 1.6 43.2 1.6 -11.439
449 1 0 44.8 0 -11.8953
420 2 4.8 43.2 1.6 -9.935
451 3 3.2 44.8 0 -11.5066
422 2 8 43.2 1.6 -10.0055
453 3 6.4 44.8 0 -11.5621
424 2 11.2 43.2 1.6 -9.99498
455 3 9.6 44.8 0 -11.5783
426 2 14.4 43.2 1.6 -9.94485
457 2 12.8 44.8 0 -10.0359
428 2 17.6 43.2 1.6 -9.89735
459 3 16 44.8 0 -11.4872
430 1 20.8 43.2 1.6 -11.9269
461 3 19.2 44.8 0 -11.5394
432 1 24 43.2 1.6 -11.9167
463 3 22.4 44.8 0 -11.51
465 3 25.6 44.8 0 -11.4489
434 2 27.2 43.2 1.6 -9.98144
467 1 28.8 44.8 0 -11.9161
436 3 30.4 43.2 1.6 -11.4763
469 3 32 44.8 0 -11.5671
438 2 33.6 43.2 1.6 -10.0032
471 3 35.2 44.8 0 -11.491
440 2 36.8 43.2 1.6 -9.93596
473 2 38.4 44.8 0 -9.98989
442 1 40 43.2 1.6 -11.9182
475 3 41.6 44.8 0 -11.5474
444 1 43.2 43.2 1.6 -11.8664
477 2 44.8 44.8 0 -9.906
446 3 46.4 43.2 1.6 -11.4148
479 2 48 44.8 0 -9.95502
448 2 49.6 43.2 1.6 -9.9955
450 3 1.6 46.4 1.6 -11.5659
481 2 0 48 0 -9.98706
452 2 4.8 46.4 1.6 -9.96095
483 3 3.2 48 0 -11.5435
454 2 8 46.4 1.6 -10.013
485 2 6.4 48 0 -9.96615
456 3 11.2 46.4 1.6 -11.5335
487 1 9.6 48 0 -11.9009
458 1 14.4 46.4 1.6 -11.9233
489 3 12.8 48 0 -11.4809
460 1 17.6 46.4 1.6 -11.9379
491 3 16 48 0 -11.4813
462 3 20.8 46.4 1.6 -11.4946
493 3 19.2 48 0 -11.5374
464 3 24 46.4 1.6 -11.4049
495 1 22.4 48 0 -11.9796
497 1 25.6 48 0 -11.9011
466 2 27.2 46.4 1.6 -9.97162
499 1 28.8 48 0 -11.8698
468 3 30.4 46.4 1.6 -11.5545
501 3 32 48 0 -11.5308
470 3 33.6 46.4 1.6 -11.4689
503 3 35.2 48 0 -11.5227
472 1 36.8 46.4 1.6 -11.9694
505 3 38.4 48 0 -11.5335
474 3 40 46.4 1.6 -11.4178
507 2 41.6 48 0 -9.92572
476 2 43.2 46.4 1.6 -9.89908
509 1 44.8 48 0 -11.8501
478 3 46.4 46.4 1.6 -11.4418
511 2 48 48 0 -9.96808
480 2 49.6 46.4 1.6 -9.97439
482 3 1.6 49.6 1.6 -11.5222
484 3 4.8 49.6 1.6 -11.5656
486 3 8 49.6 1.6 -11.5142
488 3 11.2 49.6 1.6 -11.5809
490 3 14.4 49.6 1.6 -11.5208
492 3 17.6 49.6 1.6 -11.4835
494 3 20.8 49.6 1.6 -11.6064
496 3 24 49.6 1.6 -11.5304
498 3 27.2 49.6 1.6 -11.4198
500 2 30.4 49.6 1.6 -9.96791
502 1 33.6 49.6 1.6 -11.9554
504 1 36.8 49.6 1.6 -11.9147
506 1 40 49.6 1.6 -11.8479
508 2 43.2 49.6 1.6 -9.85324
510 2 46.4 49.6 1.6 -9.96442
512 1 49.6 49.6 1.6 -11.9419
513 3 0 0 3.2 -11.4
514 2 1.6 1.6 4.8 -9.96177
515 1 3.2 0 3.2 -11.9272
516 3 4.8 1.6 4.8 -11.5792
517 3 6.4 0 3.2 -11.5108
518 3 8 1.6 4.8 -11.6461
519 1 9.6 0 3.2 -11.9857
520 3 11.2 1.6 4.8 -11.5805
521 3 12.8 0 3.2 -11.5559
522 1 14.4 1.6 4.8 -11.8978
523 2 16 0 3.2 -9.95821
524 3 17.6 1.6 4.8 -11.411
525 1 19.2 0 3.2 -11.9189
526 2 20.8 1.6 4.8 -9.98933
527 3 22.4 0 3.2 -11.4751
528 3 24 1.6 4.8 -11.546
529 2 25.6 0 3.2 -9.98794
530 3 27.2 1.6 4.8 -11.4792
531 2 28.8 0 3.2 -9.94978
532 2 30.4 1.6 4.8 -9.95634
533 2 32 0 3.2 -9.95785
534 2 33.6 1.6 4.8 -10.0145
535 3 35.2 0 3.2 -11.4744
536 3 36.8 1.6 4.8 -11.4562
537 3 38.4 0 3.2 -11.4593
538 3 40 1.6 4.8 -11.43
539 3 41.6 0 3.2 -11.3597
540 1 43.2 1.6 4.8 -11.8456
541 2 44.8 0 3.2 -9.95874
542 3 46.4 1.6 4.8 -11.4268
543 3 48 0 3.2 -11.4819
544 3 49.6 1.6 4.8 -11.441
545 1 0 3.2 3.2 -11.8843
546 3 1.6 4.8 4.8 -11.4303
547 1 3.2 3.2 3.2 -11.8493
548 3 4.8 4.8 4.8 -11.5096
549 3 6.4 3.2 3.2 -11.5774
550 3 8 4.8 4.8 -11.5664
551 3 9.6 3.2 3.2 -11.5543
552 3 11.2 4.8 4.8 -11.5442
553 3 12.8 3.2 3.2 -11.5336
554 1 14.4 4.8 4.8 -11.9131
555 3 16 3.2 3.2 -11.4639
556 3 17.6 4.8 4.8 -11.5442
557 1 19.2 3.2 3.2 -11.8865
558 3 20.8 4.8 4.8 -11.4765
559 1 22.4 3.2 3.2 -11.918
560 3 24 4.8 4.8 -11.5152
561 1 25.6 3.2 3.2 -11.9147
562 3 27.2 4.8 4.8 -11.3983
563 1 28.8 3.2 3.2 -11.8869
564 3 30.4 4.8 4.8 -11.4037
565 2 32 3.2 3.2 -9.94889
566 3 33.6 4.8 4.8 -11.5367
567 3 35.2 3.2 3.2 -11.5878
568 2 36.8 4.8 4.8 -10.0183
569 3 38.4 3.2 3.2 -11.453
570 3 40 4.8 4.8 -11.5322
571 2 41.6 3.2 3.2 -9.98398
572 3 43.2 4.8 4.8 -11.526
573 1 44.8 3.2 3.2 -11.85
574 3 46.4 4.8 4.8 -11.4589
575 1 48 3.2 3.2 -11.8689
576 3 49.6 4.8 4.8 -11.4359
577 1 0 6.4 3.2 -11.8352
578 2 1.6 8 4.8 -9.86404
579 1 3.2 6.4 3.2 -11.8362
580 3 4.8 8 4.8 -11.3978
581 1 6.4 6.4 3.2 -11.9044
582 2 8 8 4.8 -9.94216
583 2 9.6 6.4 3.2 -9.992
584 2 11.2 8 4.8 -9.96638
585 3 12.8 6.4 3.2 -11.5178
586 1 14.4 8 4.8 -11.8953
587 2 16 6.4 3.2 -9.93799
588 2 17.6 8 4.8 -9.91268
589 2 19.2 6.4 3.2 -9.86599
590 1 20.8 8 4.8 -11.8543
591 2 22.4 6.4 3.2 -9.94152
592 3 24 8 4.8 -11.4804
593 3 25.6 6.4 3.2 -11.4522
594 3 27.2 8 4.8 -11.5457
595 1 28.8 6.4 3.2 -11.9587
596 2 30.4 8 4.8 -9.96306
597 3 32 6.4 3.2 -11.4338
598 2 33.6 8 4.8 -9.96694
599 2 35.2 6.4 3.2 -10.0063
600 1 36.8 8 4.8 -11.8992
601 2 38.4 6.4 3.2 -9.98551
602 1 40 8 4.8 -11.8308
603 3 41.6 6.4 3.2 -11.4732
604 3 43.2 8 4.8 -11.5078
605 2 44.8 6.4 3.2 -9.96028
606 1 46.4 8 4.8 -11.8107
607 1 48 6.4 3.2 -11.8425
608 2 49.6 8 4.8 -9.89564
609 1 0 9.6 3.2 -11.8592
610 2 1.6 11.2 4.8 -9.94448
611 1 3.2 9.6 3.2 -11.82
612 3 4.8 11.2 4.8 -11.5409
613 2 6.4 9.6 3.2 -9.95515
614 1 8 11.2 4.8 -11.9336
615 3 9.6 9.6 3.2 -11.5457
616 2 11.2 11.2 4.8 -9.94028
617 3 12.8 9.6 3.2 -11.5213
618 2 14.4 11.2 4.8 -9.89006
619 2 16 9.6 3.2 -9.96225
620 3 17.6 11.2 4.8 -11.4848
621 2 19.2 9.6 3.2 -9.86246
622 3 20.8 11.2 4.8 -11.4606
623 2 22.4 9.6 3.2 -9.96113
624 3 24 11.2 4.8 -11.5571
625 3 25.6 9.6 3.2 -11.5693
626 3 27.2 11.2 4.8 -11.5187
627 3 28.8 9.6 3.2 -11.4607
628 2 30.4 11.2 4.8 -9.99269
629 1 32 9.6 3.2 -11.926
630 3 33.6 11.2 4.8 -11.5311
631 2 35.2 9.6 3.2 -9.91708
632 3 36.8 11.2 4.8 -11.4278
633 3 38.4 9.6 3.2 -11.3357
634 1 40 11.2 4.8 -11.8679
635 2 41.6 9.6 3.2 -9.91145
636 3 43.2 11.2 4.8 -11.4827
637 2 44.8 9.6 3.2 -9.99196
638 1 46.4 11.2 4.8 -11.7747
639 2 48 9.6 3.2 -9.80335
640 3 49.6 11.2 4.8 -11.4146
641 2 0 12.8 3.2 -9.94831
642 1 1.6 14.4 4.8 -11.9261
643 3 3.2 12.8 3.2 -11.5392
644 3 4.8 14.4 4.8 -11.5542
645 3 6.4 12.8 3.2 -11.5627
646 1 8 14.4 4.8 -11.9042
647 3 9.6 12.8 3.2 -11.4787
648 2 11.2 14.4 4.8 -9.91532
649 1 12.8 12.8 3.2 -11.8301
650 1 14.4 14.4 4.8 -11.819
651 2 16 12.8 3.2 -9.85641
652 2 17.6 14.4 4.8 -9.8989
653 1 19.2 12.8 3.2 -11.8945
654 3 20.8 14.4 4.8 -11.3282
655 2 22.4 12.8 3.2 -9.91259
656 3 24 14.4 4.8 -11.389
657 1 25.6 12.8 3.2 -11.9658
658 3 27.2 14.4 4.8 -11.5228
659 3 28.8 12.8 3.2 -11.484
660 3 30.4 14.4 4.8 -11.4971
661 2 32 12.8 3.2 -9.94949
662 3 33.6 14.4 4.8 -11.3442
663 1 35.2 12.8 3.2 -11.8516
664 1 36.8 14.4 4.8 -11.7854
665 2 38.4 12.8 3.2 -9.95573
666 2 40 14.4 4.8 -9.93798
667 3 41.6 12.8 3.2 -11.5516
668 3 43.2 14.4 4.8 -11.5648
669 3 44.8 12.8 3.2 -11.4553
670 2 46.4 14.4 4.8 -9.93935
671 1 48 12.8 3.2 -11.8422
672 3 49.6 14.4 4.8 -11.5121
673 3 0 16 3.2 -11.5227
674 1 1.6 17.6 4.8 -11.9482
675 3 3.2 16 3.2 -11.4642
676 3 4.8 17.6 4.8 -11.5679
677 3 6.4 16 3.2 -11.5216
678 1 8 17.6 4.8 -11.8495
679 3 9.6 16 3.2 -11.42
680 3 11.2 17.6 4.8 -11.4788
681 2 12.8 16 3.2 -9.95472
682 2 14.4 17.6 4.8 -9.9648
683 2 16 16 3.2 -9.96792
684 2 17.6 17.6 4.8 -9.94536
685 1 19.2 16 3.2 -11.8974
686 3 20.8 17.6 4.8 -11.4551
687 2 22.4 16 3.2 -9.9628
688 2 24 17.6 4.8 -10.005
689 2 25.6 16 3.2 -9.89465
690 3 27.2 17.6 4.8 -11.5199
691 2 28.8 16 3.2 -9.92164
692 3 30.4 17.6 4.8 -11.516
693 1 32 16 3.2 -11.8918
694 2 33.6 17.6 4.8 -9.92048
695 1 35.2 16 3.2 -11.7581
696 3 36.8 17.6 4.8 -11.4112
697 3 38.4 16 3.2 -11.4831
698 3 40 17.6 4.8 -11.543
699 3 41.6 16 3.2 -11.5996
700 3 43.2 17.6 4.8 -11.5207
701 3 44.8 16 3.2 -11.5901
702 2 46.4 17.6 4.8 -10.0095
703 3 48 16 3.2 -11.4472
704 3 49.6 17.6 4.8 -11.5411
705 3 0 19.2 3.2 -11.4688
706 1 1.6 20.8 4.8 -11.9386
707 3 3.2 19.2 3.2 -11.549
708 3 4.8 20.8 4.8 -11.5773
709 3 6.4 19.2 3.2 -11.4725
710 2 8 20.8 4.8 -9.95237
711 1 9.6 19.2 3.2 -11.7453
712 3 11.2 20.8 4.8 -11.5019
713 1 12.8 19.2 3.2 -11.8845
714 2 14.4 20.8 4.8 -9.90429
715 2 16 19.2 3.2 -9.96259
716 2 17.6 20.8 4.8 -9.9547
717 3 19.2 19.2 3.2 -11.3496
718 2 20.8 20.8 4.8 -9.95751
719 3 22.4 19.2 3.2 -11.5407
720 2 24 20.8 4.8 -9.93396
721 2 25.6 19.2 3.2 -9.99745
722 3 27.2 20.8 4.8 -11.4796
723 1 28.8 19.2 3.2 -11.9294
724 2 30.4 20.8 4.8 -9.96367
725 1 32 19.2 3.2 -11.9021
726 3 33.6 20.8 4.8 -11.4334
727 1 35.2 19.2 3.2 -11.8268
728 3 36.8 20.8 4.8 -11.38
729 3 38.4 19.2 3.2 -11.5064
730 2 40 20.8 4.8 -9.96001
731 3 41.6 19.2 3.2 -11.5177
732 1 43.2 20.8 4.8 -11.7464
733 3 44.8 19.2 3.2 -11.5053
734 2 46.4 20.8 4.8 -9.93297
735 2 48 19.2 3.2 -9.98347
736 3 49.6 20.8 4.8 -11.5396
737 2 0 22.4 3.2 -9.98549
738 2 1.6 24 4.8 -9.97033
739 3 3.2 22.4 3.2 -11.4726
740 3 4.8 24 4.8 -11.5215
741 3 6.4 22.4 3.2 -11.5655
742 3 8 24 4.8 -11.5443
743 3 9.6 22.4 3.2 -11.5024
744 3 11.2 24 4.8 -11.5875
745 2 12.8 22.4 3.2 -9.96706
746 1 14.4 24 4.8 -11.913
747 2 16 22.4 3.2 -9.94045
748 2 17.6 24 4.8 -9.99444
749 2 19.2 22.4 3.2 -9.94299
750 2 20.8 24 4.8 -9.94966
751 1 22.4 22.4 3.2 -11.8278
752 3 24 24 4.8 -11.4597
753 2 25.6 22.4 3.2 -9.92869
754 3 27.2 24 4.8 -11.5652
755 3 28.8 22.4 3.2 -11.4443
756 1 30.4 24 4.8 -11.9161
757 3 32 22.4 3.2 -11.5114
758 3 33.6 24 4.8 -11.4895
759 1 35.2 22.4 3.2 -11.8432
760 2 36.8 24 4.8 -9.95621
761 1 38.4 22.4 3.2 -11.8467
762 3 40 24 4.8 -11.3893
763 1 41.6 22.4 3.2 -11.8316
764 3 43.2 24 4.8 -11.4059
765 2 44.8 22.4 3.2 -9.91501
766 2 46.4 24 4.8 -9.98235
767 2 48 22.4 3.2 -9.90696
768 3 49.6 24 4.8 -11.4755
769 2 0 25.6 3.2 -9.92455
771 2 3.2 25.6 3.2 -10.0058
773 3 6.4 25.6 3.2 -11.6095
775 3 9.6 25.6 3.2 -11.6214
777 3 12.8 25.6 3.2 -11.5007
779 3 16 25.6 3.2 -11.4525
781 2 19.2 25.6 3.2 -10.0037
783 2 22.4 25.6 3.2 -9.93682
785 2 25.6 25.6 3.2 -10.0278
787 2 28.8 25.6 3.2 -9.98763
789 2 32 25.6 3.2 -9.97042
791 2 35.2 25.6 3.2 -9.90191
793 1 38.4 25.6 3.2 -11.8971
795 2 41.6 25.6 3.2 -9.9356
797 1 44.8 25.6 3.2 -11.8914
799 1 48 25.6 3.2 -11.8839
770 2 1.6 27.2 4.8 -9.9352
801 2 0 28.8 3.2 -9.98952
772 3 4.8 27.2 4.8 -11.5088
803 3 3.2 28.8 3.2 -11.5139
774 3 8 27.2 4.8 -11.5549
805 3 6.4 28.8 3.2 -11.5653
776 2 11.2 27.2 4.8 -9.94424
807 3 9.6 28.8 3.2 -11.502
778 3 14.4 27.2 4.8 -11.4731
809 2 12.8 28.8 3.2 -9.95619
780 3 17.6 27.2 4.8 -11.4778
811 1 16 28.8 3.2 -11.9063
782 2 20.8 27.2 4.8 -9.93894
813 1 19.2 28.8 3.2 -11.8566
784 3 24 27.2 4.8 -11.5111
815 1 22.4 28.8 3.2 -11.815
817 3 25.6 28.8 3.2 -11.5236
786 3 27.2 27.2 4.8 -11.5908
819 3 28.8 28.8 3.2 -11.5246
788 1 30.4 27.2 4.8 -11.8659
821 3 32 28.8 3.2 -11.5134
790 3 33.6 27.2 4.8 -11.5152
823 3 35.2 28.8 3.2 -11.5176
792 2 36.8 27.2 4.8 -9.98884
825 2 38.4 28.8 3.2 -9.9564
794 2 40 27.2 4.8 -10.0084
827 2 41.6 28.8 3.2 -9.90082
796 3 43.2 27.2 4.8 -11.4563
829 1 44.8 28.8 3.2 -11.9139
798 3 46.4 27.2 4.8 -11.4527
831 3 48 28.8 3.2 -11.4197
800 2 49.6 27.2 4.8 -9.99315
802 1 1.6 30.4 4.8 -11.8743
833 2 0 32 3.2 -9.94969
804 1 4.8 30.4 4.8 -11.9116
835 3 3.2 32 3.2 -11.4583
806 1 8 30.4 4.8 -11.9112
837 3 6.4 32 3.2 -11.5305
808 1 11.2 30.4 4.8 -11.8907
839 3 9.6 32 3.2 -11.5522
810 3 14.4 30.4 4.8 -11.4456
841 3 12.8 32 3.2 -11.4498
812 3 17.6 30.4 4.8 -11.4618
843 1 16 32 3.2 -11.9024
814 2 20.8 30.4 4.8 -9.89951
845 3 19.2 32 3.2 -11.4977
816 1 24 30.4 4.8 -11.8735
847 3 22.4 32 3.2 -11.4096
849 3 25.6 32 3.2 -11.5672
818 3 27.2 30.4 4.8 -11.5556
851 3 28.8 32 3.2 -11.4747
820 3 30.4 30.4 4.8 -11.4474
853 1 32 32 3.2 -11.9257
822 2 33.6 30.4 4.8 -10.0248
855 2 35.2 32 3.2 -10.0028
824 2 36.8 30.4 4.8 -9.93938
857 3 38.4 32 3.2 -11.4994
826 2 40 30.4 4.8 -9.95648
859 1 41.6 32 3.2 -11.9381
828 3 43.2 30.4 4.8 -11.3604
861 2 44.8 32 3.2 -9.9298
830 2 46.4 30.4 4.8 -9.99394
863 3 48 32 3.2 -11.5759
832 1 49.6 30.4 4.8 -11.9363
834 1 1.6 33.6 4.8 -11.8899
865 3 0 35.2 3.2 -11.4716
836 1 4.8 33.6 4.8 -11.9016
867 3 3.2 35.2 3.2 -11.4776
838 1 8 33.6 4.8 -11.9726
869 3 6.4 35.2 3.2 -11.5345
840 3 11.2 33.6 4.8 -11.4567
871 3 9.6 35.2 3.2 -11.569
842 2 14.4 33.6 4.8 -9.99127
873 1 12.8 35.2 3.2 -11.8314
844 3 17.6 33.6 4.8 -11.4698
875 1 16 35.2 3.2 -11.8819
846 1 20.8 33.6 4.8 -11.8853
877 2 19.2 35.2 3.2 -9.97778
848 1 24 33.6 4.8 -11.8909
879 2 22.4 35.2 3.2 -9.91307
881 3 25.6 35.2 3.2 -11.5604
850 2 27.2 33.6 4.8 -10.0084
883 2 28.8 35.2 3.2 -9.99558
852 3 30.4 33.6 4.8 -11.4101
885 3 32 35.2 3.2 -11.4487
854 2 33.6 33.6 4.8 -9.96697
887 3 35.2 35.2 3.2 -11.5025
856 1 36.8 33.6 4.8 -11.904
889 3 38.4 35.2 3.2 -11.4795
858 3 40 33.6 4.8 -11.4504
891 1 41.6 35.2 3.2 -11.9008
860 3 43.2 33.6 4.8 -11.3918
893 1 44.8 35.2 3.2 -11.9423
862 2 46.4 33.6 4.8 -10.0286
895 3 48 35.2 3.2 -11.5456
864 2 49.6 33.6 4.8 -9.9641
866 3 1.6 36.8 4.8 -11.4979
897 1 0 38.4 3.2 -11.8551
868 3 4.8 36.8 4.8 -11.4998
899 1 3.2 38.4 3.2 -11.8672
870 2 8 36.8 4.8 -10.0207
901 3 6.4 38.4 3.2 -11.4464
872 2 11.2 36.8 4.8 -9.92029
903 2 9.6 38.4 3.2 -9.95927
874 3 14.4 36.8 4.8 -11.3324
905 1 12.8 38.4 3.2 -11.8401
876 3 17.6 36.8 4.8 -11.5391
907 2 16 38.4 3.2 -9.88736
878 1 20.8 36.8 4.8 -11.8521
909 3 19.2 38.4 3.2 -11.4932
880 1 24 36.8 4.8 -11.9109
911 3 22.4 38.4 3.2 -11.4559
913 3 25.6 38.4 3.2 -11.592
882 3 27.2 36.8 4.8 -11.5007
915 1 28.8 38.4 3.2 -11.9692
884 3 30.4 36.8 4.8 -11.5726
917 2 32 38.4 3.2 -9.99586
886 3 33.6 36.8 4.8 -11.4869
919 3 35.2 38.4 3.2 -11.4096
888 1 36.8 36.8 4.8 -11.916
921 3 38.4 38.4 3.2 -11.4808
890 3 40 36.8 4.8 -11.4507
923 1 41.6 38.4 3.2 -11.909
892 3 43.2 36.8 4.8 -11.4657
925 3 44.8 38.4 3.2 -11.4117
894 3 46.4 36.8 4.8 -11.5389
927 1 48 38.4 3.2 -11.8889
896 2 49.6 36.8 4.8 -10.0072
898 2 1.6 40 4.8 -9.92039
929 1 0 41.6 3.2 -11.849
900 3 4.8 40 4.8 -11.4523
931 1 3.2 41.6 3.2 -11.8131
902 3 8 40 4.8 -11.5547
933 1 6.4 41.6 3.2 -11.8643
904 3 11.2 40 4.8 -11.3793
935 2 9.6 41.6 3.2 -9.93955
906 3 14.4 40 4.8 -11.3328
937 1 12.8 41.6 3.2 -11.8101
908 3 17.6 40 4.8 -11.4722
939 1 16 41.6 3.2 -11.8461
910 1 20.8 40 4.8 -11.917
941 2 19.2 41.6 3.2 -9.97437
912 2 24 40 4.8 -9.94935
943 3 22.4 41.6 3.2 -11.457
945 3 25.6 41.6 3.2 -11.5451
914 2 27.2 40 4.8 -10.0343
947 2 28.8 41.6 3.2 -9.97535
916 3 30.4 40 4.8 -11.5024
949 3 32 41.6 3.2 -11.4562
918 1 33.6 40 4.8 -11.889
951 2 35.2 41.6 3.2 -9.96484
920 1 36.8 40 4.8 -11.9286
953 3 38.4 41.6 3.2 -11.5106
922 2 40 40 4.8 -9.96505
955 2 41.6 41.6 3.2 -9.95128
924 3 43.2 40 4.8 -11.4753
957 3 44.8 41.6 3.2 -11.4421
926 3 46.4 40 4.8 -11.5059
959 2 48 41.6 3.2 -9.92336
928 3 49.6 40 4.8 -11.3013
930 3 1.6 43.2 4.8 -11.496
961 3 0 44.8 3.2 -11.4732
932 2 4.8 43.2 4.8 -9.92178
963 1 3.2 44.8 3.2 -11.9106
934 2 8 43.2 4.8 -9.92389
965 2 6.4 44.8 3.2 -9.91037
936 1 11.2 43.2 4.8 -11.8852
967 3 9.6 44.8 3.2 -11.5709
938 2 14.4 43.2 4.8 -9.91138
969 3 12.8 44.8 3.2 -11.4157
940 3 17.6 43.2 4.8 -11.5213
971 3 16 44.8 3.2 -11.4268
942 3 20.8 43.2 4.8 -11.4799
973 3 19.2 44.8 3.2 -11.5498
944 2 24 43.2 4.8 -9.99075
975 2 22.4 44.8 3.2 -9.94833
977 2 25.6 44.8 3.2 -9.99186
946 2 27.2 43.2 4.8 -10.0038
979 3 28.8 44.8 3.2 -11.4777
948 2 30.4 43.2 4.8 -10.0441
981 2 32 44.8 3.2 -10.0038
950 2 33.6 43.2 4.8 -9.9826
983 2 35.2 44.8 3.2 -10.0464
952 3 36.8 43.2 4.8 -11.5418
985 3 38.4 44.8 3.2 -11.5654
954 3 40 43.2 4.8 -11.5247
987 3 41.6 44.8 3.2 -11.3828
956 3 43.2 43.2 4.8 -11.4457
989 1 44.8 44.8 3.2 -11.8986
958 3 46.4 43.2 4.8 -11.5739
991 3 48 44.8 3.2 -11.5661
960 3 49.6 43.2 4.8 -11.5387
962 3 1.6 46.4 4.8 -11.6224
993 3 0 48 3.2 -11.6133
964 2 4.8 46.4 4.8 -9.96766
995 3 3.2 48 3.2 -11.4865
966 2 8 46.4 4.8 -9.98622
997 1 6.4 48 3.2 -11.9402
968 3 11.2 46.4 4.8 -11.4613
999 3 9.6 48 3.2 -11.4603
970 1 14.4 46.4 4.8 -11.89
1001 3 12.8 48 3.2 -11.5801
972 2 17.6 46.4 4.8 -9.93768
1003 2 16 48 3.2 -9.94758
974 3 20.8 46.4 4.8 -11.4576
1005 3 19.2 48 3.2 -11.4198
976 3 24 46.4 4.8 -11.3926
1007 1 22.4 48 3.2 -11.9388
1009 1 25.6 48 3.2 -11.8942
978 3 27.2 46.4 4.8 -11.4932
1011 2 28.8 48 3.2 -9.94312
980 3 30.4 46.4 4.8 -11.4592
1013 2 32 48 3.2 -9.9802
982 2 33.6 46.4 4.8 -10.0235
1015 3 35.2 48 3.2 -11.5181
984 3 36.8 46.4 4.8 -11.5545
1017 3 38.4 48 3.2 -11.4888
986 3 40 46.4 4.8 -11.5783
1019 1 41.6 48 3.2 -11.8611
988 3 43.2 46.4 4.8 -11.4958
1021 1 44.8 48 3.2 -11.8381
990 3 46.4 46.4 4.8 -11.5483
1023 3 48 48 3.2 -11.4816
992 2 49.6 46.4 4.8 -10.0517
994 3 1.6 49.6 4.8 -11.6136
996 3 4.8 49.6 4.8 -11.6058
998 3 8 49.6 4.8 -11.542
1000 3 11.2 49.6 4.8 -11.5668
1002 1 14.4 49.6 4.8 -11.8284
1004 2 17.6 49.6 4.8 -9.90906
1006 3 20.8 49.6 4.8 -11.4054
1008 3 24 49.6 4.8 -11.5299
1010 3 27.2 49.6 4.8 -11.5209
1012 2 30.4 49.6 4.8 -9.98695
1014 3 33.6 49.6 4.8 -11.3876
1016 3 36.8 49.6 4.8 -11.5258
1018 2 40 49.6 4.8 -10.0112
1020 3 43.2 49.6 4.8 -11.4813
1022 3 46.4 49.6 4.8 -11.5479
1024 3 49.6 49.6 4.8 -11.4916
1025 1 0 0 6.4 -11.9549
1026 3 1.6 1.6 8 -11.469
1027 3 3.2 0 6.4 -11.4868
1028 3 4.8 1.6 8 -11.5863
1029 3 6.4 0 6.4 -11.5999
1030 3 8 1.6 8 -11.5143
1031 1 9.6 0 6.4 -11.9491
1032 3 11.2 1.6 8 -11.5109
1033 3 12.8 0 6.4 -11.4475
1034 1 14.4 1.6 8 -11.9319
1035 2 16 0 6.4 -9.85792
1036 2 17.6 1.6 8 -9.94149
1037 1 19.2 0 6.4 -11.8219
1038 2 20.8 1.6 8 -9.97712
1039 3 22.4 0 6.4 -11.4954
1040 3 24 1.6 8 -11.557
1041 3 25.6 0 6.4 -11.4488
1042 3 27.2 1.6 8 -11.5428
1043 2 28.8 0 6.4 -9.97141
1044 2 30.4 1.6 8 -10.0187
1045 1 32 0 6.4 -11.8598
1046 3 33.6 1.6 8 -11.4392
1047 1 35.2 0 6.4 -11.8919
1048 2 36.8 1.6 8 -9.99628
1049 1 38.4 0 6.4 -11.8816
1050 3 40 1.6 8 -11.4311
1051 2 41.6 0 6.4 -9.98018
1052 1 43.2 1.6 8 -11.9266
1053 3 44.8 0 6.4 -11.5058
1054 3 46.4 1.6 8 -11.5372
1055 1 48 0 6.4 -11.9495
1056 3 49.6 1.6 8 -11.3943
1057 3 0 3.2 6.4 -11.3309
1058 3 1.6 4.8 8 -11.5135
1059 1 3.2 3.2 6.4 -11.9408
1060 2 4.8 4.8 8 -10.0046
1061 3 6.4 3.2 6.4 -11.5799
1062 1 8 4.8 8 -11.9092
1063 3 9.6 3.2 6.4 -11.5801
1064 1 11.2 4.8 8 -11.9726
1065 3 12.8 3.2 6.4 -11.5392
1066 2 14.4 4.8 8 -9.88996
1067 3 16 3.2 6.4 -11.5435
1068 3 17.6 4.8 8 -11.5641
1069 3 19.2 3.2 6.4 -11.5198
1070 3 20.8 4.8 8 -11.5998
1071 2 22.4 3.2 6.4 -9.99734
1072 3 24 4.8 8 -11.5798
1073 1 25.6 3.2 6.4 -11.952
1074 3 27.2 4.8 8 -11.4513
1075 2 28.8 3.2 6.4 -9.90442
1076 2 30.4 4.8 8 -9.95477
1077 2 32 3.2 6.4 -9.93878
1078 2 33.6 4.8 8 -9.97097
1079 3 35.2 3.2 6.4 -11.4848
1080 3 36.8 4.8 8 -11.553
1081 1 38.4 3.2 6.4 -11.9651
1082 3 40 4.8 8 -11.5545
1083 2 41.6 3.2 6.4 -9.9788
1084 2 43.2 4.8 8 -9.99565
1085 3 44.8 3.2 6.4 -11.4643
1086 3 46.4 4.8 8 -11.5628
1087 1 48 3.2 6.4 -11.9282
1088 2 49.6 4.8 8 -9.95057
1089 3 0 6.4 6.4 -11.54
1090 2 1.6 8 8 -9.91897
1091 3 3.2 6.4 6.4 -11.4319
1092 2 4.8 8 8 -9.98692
1093 2 6.4 6.4 6.4 -9.98179
1094 1 8 8 8 -11.8393
1095 3 9.6 6.4 6.4 -11.4558
1096 1 11.2 8 8 -11.9052
1097 3 12.8 6.4 6.4 -11.4484
1098 1 14.4 8 8 -11.9163
1099 3 16 6.4 6.4 -11.5249
1100 2 17.6 8 8 -9.985
1101 3 19.2 6.4 6.4 -11.5428
1102 1 20.8 8 8 -11.9178
1103 3 22.4 6.4 6.4 -11.5161