ITEM: TIMESTEP
0
ITEM: NUMBER OF ATOMS
8192
ITEM: BOX BOUNDS pp pp pp
0.0000000000000000e+00 5.1200000000000003e+01
0.0000000000000000e+00 5.1200000000000003e+01
0.0000000000000000e+00 5.1200000000000003e+01
ITEM: ATOMS id type x y z c_eng
1 2 0 0 0 -9.92806
2 3 1.6 1.6 1.6 -11.4373
3 1 3.2 0 0 -11.9741
4 3 4.8 1.6 1.6 -11.5727
5 3 6.4 0 0 -11.5444
6 3 8 1.6 1.6 -11.5628
7 1 9.6 0 0 -11.862
8 3 11.2 1.6 1.6 -11.5227
9 3 12.8 0 0 -11.566
10 3 14.4 1.6 1.6 -11.5328
11 3 16 0 0 -11.6221
12 3 17.6 1.6 1.6 -11.6247
13 3 19.2 0 0 -11.5192
14 3 20.8 1.6 1.6 -11.4693
15 2 22.4 0 0 -9.97835
16 3 24 1.6 1.6 -11.5095
17 3 25.6 0 0 -11.5171
18 2 27.2 1.6 1.6 -10.0035
19 3 28.8 0 0 -11.5189
20 2 30.4 1.6 1.6 -9.93731
21 2 32 0 0 -9.94432
22 1 33.6 1.6 1.6 -11.7649
23 2 35.2 0 0 -9.88934
24 1 36.8 1.6 1.6 -11.9128
25 3 38.4 0 0 -11.5944
26 2 40 1.6 1.6 -10.0168
27 3 41.6 0 0 -11.5889
28 2 43.2 1.6 1.6 -9.94419
29 3 44.8 0 0 -11.5251
30 2 46.4 1.6 1.6 -9.97171
31 2 48 0 0 -9.96375
32 2 49.6 1.6 1.6 -9.9221
33 3 0 3.2 0 -11.503
34 3 1.6 4.8 1.6 -11.4785
35 2 3.2 3.2 0 -9.95017
36 3 4.8 4.8 1.6 -11.4893
37 2 6.4 3.2 0 -10.0019
38 3 8 4.8 1.6 -11.5068
39 1 9.6 3.2 0 -11.8455
40 2 11.2 4.8 1.6 -9.91149
41 2 12.8 3.2 0 -9.9782
42 1 14.4 4.8 1.6 -11.8912
43 3 16 3.2 0 -11.5524
44 3 17.6 4.8 1.6 -11.513
45 3 19.2 3.2 0 -11.5545
46 3 20.8 4.8 1.6 -11.5548
47 3 22.4 3.2 0 -11.5123
48 3 24 4.8 1.6 -11.5219
49 3 25.6 3.2 0 -11.4276
50 3 27.2 4.8 1.6 -11.582
51 2 28.8 3.2 0 -9.98069
52 3 30.4 4.8 1.6 -11.5541
53 1 32 3.2 0 -11.8552
54 2 33.6 4.8 1.6 -10.002
55 3 35.2 3.2 0 -11.4447
56 3 36.8 4.8 1.6 -11.5288
57 3 38.4 3.2 0 -11.6016
58 2 40 4.8 1.6 -9.98909
59 2 41.6 3.2 0 -10.0286
60 2 43.2 4.8 1.6 -9.99014
61 3 44.8 3.2 0 -11.4007
62 2 46.4 4.8 1.6 -9.93358
63 2 48 3.2 0 -9.95141
64 3 49.6 4.8 1.6 -11.4212
65 3 0 6.4 0 -11.5155
66 2 1.6 8 1.6 -9.92352
67 3 3.2 6.4 0 -11.4608
68 2 4.8 8 1.6 -9.91769
69 2 6.4 6.4 0 -9.95006
70 2 8 8 1.6 -9.94249
71 1 9.6 6.4 0 -11.8303
72 2 11.2 8 1.6 -9.97488
73 3 12.8 6.4 0 -11.4269
74 1 14.4 8 1.6 -11.9032
75 3 16 6.4 0 -11.4182
76 1 17.6 8 1.6 -11.9026
77 2 19.2 6.4 0 -10.013
78 1 20.8 8 1.6 -11.8696
79 2 22.4 6.4 0 -9.98931
80 1 24 8 1.6 -11.9336
81 3 25.6 6.4 0 -11.5032
82 3 27.2 8 1.6 -11.5562
83 3 28.8 6.4 0 -11.5566
84 3 30.4 8 1.6 -11.4806
85 2 32 6.4 0 -9.90004
86 3 33.6 8 1.6 -11.4985
87 3 35.2 6.4 0 -11.5866
88 3 36.8 8 1.6 -11.5073
89 2 38.4 6.4 0 -10.0183
90 1 40 8 1.6 -11.9009
91 3 41.6 6.4 0 -11.4018
92 3 43.2 8 1.6 -11.3687
93 2 44.8 6.4 0 -9.95411
94 1 46.4 8 1.6 -11.8333
95 2 48 6.4 0 -9.91865
96 2 49.6 8 1.6 -9.9483
97 2 0 9.6 0 -10.0062
98 2 1.6 11.2 1.6 -9.97121
99 3 3.2 9.6 0 -11.4104
100 2 4.8 11.2 1.6 -9.91581
101 2 6.4 9.6 0 -9.93754
102 1 8 11.2 1.6 -11.81
103 2 9.6 9.6 0 -9.9182
104 3 11.2 11.2 1.6 -11.514
105 3 12.8 9.6 0 -11.4542
106 3 14.4 11.2 1.6 -11.4709
107 3 16 9.6 0 -11.4839
108 2 17.6 11.2 1.6 -9.98018
109 3 19.2 9.6 0 -11.4768
110 1 20.8 11.2 1.6 -11.9254
111 3 22.4 9.6 0 -11.4771
112 2 24 11.2 1.6 -9.98974
113 3 25.6 9.6 0 -11.4771
114 3 27.2 11.2 1.6 -11.5784
115 1 28.8 9.6 0 -11.9378
116 2 30.4 11.2 1.6 -9.90127
117 1 32 9.6 0 -11.838
118 2 33.6 11.2 1.6 -9.93487
119 2 35.2 9.6 0 -9.99373
120 3 36.8 11.2 1.6 -11.5546
121 3 38.4 9.6 0 -11.4834
122 3 40 11.2 1.6 -11.4268
123 3 41.6 9.6 0 -11.5361
124 1 43.2 11.2 1.6 -11.9853
125 3 44.8 9.6 0 -11.4849
126 2 46.4 11.2 1.6 -9.902
127 3 48 9.6 0 -11.4338
128 2 49.6 11.2 1.6 -9.9829
129 2 0 12.8 0 -9.97008
130 1 1.6 14.4 1.6 -11.8625
131 2 3.2 12.8 0 -10.0306
132 2 4.8 14.4 1.6 -9.96091
133 3 6.4 12.8 0 -11.3903
134 1 8 14.4 1.6 -11.8463
135 2 9.6 12.8 0 -9.96477
136 2 11.2 14.4 1.6 -9.99842
137 1 12.8 12.8 0 -11.9
138 2 14.4 14.4 1.6 -9.92689
139 1 16 12.8 0 -11.8916
140 3 17.6 14.4 1.6 -11.5122
141 2 19.2 12.8 0 -9.9863
142 3 20.8 14.4 1.6 -11.5401
143 2 22.4 12.8 0 -9.97157
144 3 24 14.4 1.6 -11.5708
145 1 25.6 12.8 0 -11.951
146 3 27.2 14.4 1.6 -11.5468
147 3 28.8 12.8 0 -11.4956
148 3 30.4 14.4 1.6 -11.4915
149 2 32 12.8 0 -9.97325
150 2 33.6 14.4 1.6 -9.95498
151 3 35.2 12.8 0 -11.4667
152 2 36.8 14.4 1.6 -9.93346
153 2 38.4 12.8 0 -10.0128
154 1 40 14.4 1.6 -11.9151
155 3 41.6 12.8 0 -11.5904
156 3 43.2 14.4 1.6 -11.537
157 3 44.8 12.8 0 -11.5099
158 3 46.4 14.4 1.6 -11.4768
159 1 48 12.8 0 -11.8956
160 2 49.6 14.4 1.6 -9.9551
161 3 0 16 0 -11.3697
162 1 1.6 17.6 1.6 -11.83
163 2 3.2 16 0 -9.96423
164 3 4.8 17.6 1.6 -11.4825
165 2 6.4 16 0 -9.99632
166 1 8 17.6 1.6 -11.877
167 3 9.6 16 0 -11.4709
168 2 11.2 17.6 1.6 -9.99061
169 2 12.8 16 0 -9.94168
170 2 14.4 17.6 1.6 -9.89909
171 2 16 16 0 -9.94227
172 2 17.6 17.6 1.6 -9.92945
173 2 19.2 16 0 -9.92637
174 2 20.8 17.6 1.6 -10.0129
175 3 22.4 16 0 -11.4866
176 2 24 17.6 1.6 -9.9925
177 1 25.6 16 0 -11.9027
178 3 27.2 17.6 1.6 -11.4652
179 3 28.8 16 0 -11.5001
180 3 30.4 17.6 1.6 -11.3829
181 3 32 16 0 -11.4152
182 2 33.6 17.6 1.6 -9.96128
183 3 35.2 16 0 -11.5055
184 2 36.8 17.6 1.6 -9.99588
185 2 38.4 16 0 -9.97293
186 2 40 17.6 1.6 -9.98731
187 3 41.6 16 0 -11.4962
188 3 43.2 17.6 1.6 -11.5875
189 1 44.8 16 0 -11.9441
190 3 46.4 17.6 1.6 -11.455
191 1 48 16 0 -11.8578
192 2 49.6 17.6 1.6 -9.982
193 2 0 19.2 0 -9.90447
194 1 1.6 20.8 1.6 -11.87
195 2 3.2 19.2 0 -9.96934
196 3 4.8 20.8 1.6 -11.427
197 3 6.4 19.2 0 -11.4584
198 1 8 20.8 1.6 -11.9511
199 3 9.6 19.2 0 -11.5406
200 3 11.2 20.8 1.6 -11.5424
201 2 12.8 19.2 0 -9.97886
202 2 14.4 20.8 1.6 -9.90054
203 2 16 19.2 0 -9.90843
204 1 17.6 20.8 1.6 -11.8244
205 1 19.2 19.2 0 -11.8082
206 2 20.8 20.8 1.6 -9.94557
207 3 22.4 19.2 0 -11.4808
208 2 24 20.8 1.6 -10.0049
209 2 25.6 19.2 0 -9.9657
210 3 27.2 20.8 1.6 -11.4754
211 1 28.8 19.2 0 -11.9405
212 3 30.4 20.8 1.6 -11.4588
213 1 32 19.2 0 -11.893
214 3 33.6 20.8 1.6 -11.494
215 2 35.2 19.2 0 -9.9611
216 2 36.8 20.8 1.6 -10.0129
217 2 38.4 19.2 0 -9.97814
218 2 40 20.8 1.6 -10.0354
219 3 41.6 19.2 0 -11.5768
220 3 43.2 20.8 1.6 -11.6011
221 1 44.8 19.2 0 -11.9814
222 3 46.4 20.8 1.6 -11.533
223 1 48 19.2 0 -11.8682
224 3 49.6 20.8 1.6 -11.4608
225 2 0 22.4 0 -9.95517
226 1 1.6 24 1.6 -11.8175
227 3 3.2 22.4 0 -11.3916
228 1 4.8 24 1.6 -11.8618
229 3 6.4 22.4 0 -11.466
230 1 8 24 1.6 -11.8891
231 3 9.6 22.4 0 -11.6105
232 3 11.2 24 1.6 -11.4486
233 3 12.8 22.4 0 -11.5861
234 1 14.4 24 1.6 -11.8879
235 2 16 22.4 0 -9.95316
236 2 17.6 24 1.6 -9.9626
237 2 19.2 22.4 0 -9.91888
238 2 20.8 24 1.6 -9.96183
239 2 22.4 22.4 0 -9.95654
240 2 24 24 1.6 -9.94091
241 2 25.6 22.4 0 -10.0089
242 2 27.2 24 1.6 -10.028
243 3 28.8 22.4 0 -11.5204
244 3 30.4 24 1.6 -11.5174
245 3 32 22.4 0 -11.5683
246 2 33.6 24 1.6 -9.97136
247 3 35.2 22.4 0 -11.495
248 2 36.8 24 1.6 -9.85952
249 2 38.4 22.4 0 -9.96039
250 2 40 24 1.6 -9.9276
251 3 41.6 22.4 0 -11.6128
252 3 43.2 24 1.6 -11.4975
253 3 44.8 22.4 0 -11.5108
254 3 46.4 24 1.6 -11.4233
255 1 48 22.4 0 -11.8793
256 2 49.6 24 1.6 -9.90399
257 2 0 25.6 0 -9.95945
259 3 3.2 25.6 0 -11.3988
261 2 6.4 25.6 0 -9.9386
263 3 9.6 25.6 0 -11.4955
265 3 12.8 25.6 0 -11.524
267 2 16 25.6 0 -9.94787
269 3 19.2 25.6 0 -11.5245
271 2 22.4 25.6 0 -9.98062
273 2 25.6 25.6 0 -10.0067
275 2 28.8 25.6 0 -9.96116
277 1 32 25.6 0 -11.8923
279 1 35.2 25.6 0 -11.8575
281 1 38.4 25.6 0 -11.8253
283 3 41.6 25.6 0 -11.4813
285 3 44.8 25.6 0 -11.4969
287 1 48 25.6 0 -11.8211
258 2 1.6 27.2 1.6 -9.9679
289 2 0 28.8 0 -9.92427
260 2 4.8 27.2 1.6 -9.94186
291 2 3.2 28.8 0 -9.99939
262 2 8 27.2 1.6 -9.93774
293 1 6.4 28.8 0 -11.894
264 1 11.2 27.2 1.6 -11.8902
295 3 9.6 28.8 0 -11.4356
266 3 14.4 27.2 1.6 -11.4301
297 3 12.8 28.8 0 -11.4199
268 3 17.6 27.2 1.6 -11.5141
299 1 16 28.8 0 -11.9016
270 2 20.8 27.2 1.6 -10.0192
301 2 19.2 28.8 0 -10.0088
272 2 24 27.2 1.6 -9.92819
303 2 22.4 28.8 0 -9.96877
305 3 25.6 28.8 0 -11.4711
274 3 27.2 27.2 1.6 -11.5617
307 1 28.8 28.8 0 -11.9482
276 2 30.4 27.2 1.6 -10.0203
309 1 32 28.8 0 -11.829
278 3 33.6 27.2 1.6 -11.4
311 1 35.2 28.8 0 -11.9057
280 3 36.8 27.2 1.6 -11.2558
313 1 38.4 28.8 0 -11.8903
282 2 40 27.2 1.6 -9.94135
315 3 41.6 28.8 0 -11.5428
284 3 43.2 27.2 1.6 -11.5394
317 3 44.8 28.8 0 -11.5111
286 3 46.4 27.2 1.6 -11.4153
319 1 48 28.8 0 -11.8848
288 3 49.6 27.2 1.6 -11.3469
290 2 1.6 30.4 1.6 -9.95359
321 1 0 32 0 -11.8273
292 2 4.8 30.4 1.6 -9.98537
323 2 3.2 32 0 -10.011
294 2 8 30.4 1.6 -9.94575
325 2 6.4 32 0 -9.98412
296 1 11.2 30.4 1.6 -11.8812
327 3 9.6 32 0 -11.5295
298 3 14.4 30.4 1.6 -11.5186
329 2 12.8 32 0 -9.98901
300 3 17.6 30.4 1.6 -11.5376
331 2 16 32 0 -9.96107
302 3 20.8 30.4 1.6 -11.5352
333 2 19.2 32 0 -9.95846
304 2 24 30.4 1.6 -10.0222
335 1 22.4 32 0 -11.8589
337 1 25.6 32 0 -11.9276
306 3 27.2 30.4 1.6 -11.5187
339 1 28.8 32 0 -11.9154
308 3 30.4 30.4 1.6 -11.4048
341 1 32 32 0 -11.8511
310 2 33.6 30.4 1.6 -9.98143
343 3 35.2 32 0 -11.5079
312 2 36.8 30.4 1.6 -9.98469
345 3 38.4 32 0 -11.481
314 3 40 30.4 1.6 -11.601
347 2 41.6 32 0 -10.0125
316 3 43.2 30.4 1.6 -11.5776
349 2 44.8 32 0 -9.97207
318 3 46.4 30.4 1.6 -11.4846
351 1 48 32 0 -11.8725
320 2 49.6 30.4 1.6 -9.8689
322 3 1.6 33.6 1.6 -11.5006
353 1 0 35.2 0 -11.9117
324 2 4.8 33.6 1.6 -10.0433
355 3 3.2 35.2 0 -11.4489
326 3 8 33.6 1.6 -11.4865
357 1 6.4 35.2 0 -11.9674
328 2 11.2 33.6 1.6 -9.98077
359 2 9.6 35.2 0 -9.93127
330 3 14.4 33.6 1.6 -11.4732
361 1 12.8 35.2 0 -11.9143
332 2 17.6 33.6 1.6 -10.0033
363 3 16 35.2 0 -11.4699
334 2 20.8 33.6 1.6 -9.95516
365 3 19.2 35.2 0 -11.4486
336 3 24 33.6 1.6 -11.465
367 1 22.4 35.2 0 -11.835
369 3 25.6 35.2 0 -11.5569
338 2 27.2 33.6 1.6 -10.0193
371 3 28.8 35.2 0 -11.508
340 3 30.4 33.6 1.6 -11.4953
373 1 32 35.2 0 -11.9768
342 3 33.6 33.6 1.6 -11.4947
375 3 35.2 35.2 0 -11.5252
344 1 36.8 33.6 1.6 -11.9346
377 3 38.4 35.2 0 -11.477
346 3 40 33.6 1.6 -11.5409
379 1 41.6 35.2 0 -11.9132
348 3 43.2 33.6 1.6 -11.5452
381 1 44.8 35.2 0 -11.9054
350 3 46.4 33.6 1.6 -11.4988
383 1 48 35.2 0 -11.8769
352 3 49.6 33.6 1.6 -11.4287
354 3 1.6 36.8 1.6 -11.5348
385 1 0 38.4 0 -11.8765
356 3 4.8 36.8 1.6 -11.4183
387 1 3.2 38.4 0 -11.9505
358 3 8 36.8 1.6 -11.39
389 1 6.4 38.4 0 -11.851
360 3 11.2 36.8 1.6 -11.3335
391 1 9.6 38.4 0 -11.9079
362 3 14.4 36.8 1.6 -11.4714
393 1 12.8 38.4 0 -11.8656
364 3 17.6 36.8 1.6 -11.5652
395 2 16 38.4 0 -10.0193
366 2 20.8 36.8 1.6 -9.93867
397 2 19.2 38.4 0 -9.98728
368 3 24 36.8 1.6 -11.4686
399 1 22.4 38.4 0 -11.8889
401 3 25.6 38.4 0 -11.5662
370 2 27.2 36.8 1.6 -10.0463
403 2 28.8 38.4 0 -9.94598
372 3 30.4 36.8 1.6 -11.5541
405 2 32 38.4 0 -9.90591
374 3 33.6 36.8 1.6 -11.4967
407 3 35.2 38.4 0 -11.45
376 1 36.8 36.8 1.6 -11.9213
409 3 38.4 38.4 0 -11.611
378 3 40 36.8 1.6 -11.5806
411 3 41.6 38.4 0 -11.5334
380 3 43.2 36.8 1.6 -11.4685
413 1 44.8 38.4 0 -11.8507
382 3 46.4 36.8 1.6 -11.3799
415 1 48 38.4 0 -11.8529
384 3 49.6 36.8 1.6 -11.4641
386 3 1.6 40 1.6 -11.4252
417 1 0 41.6 0 -11.9493
388 3 4.8 40 1.6 -11.4663
419 3 3.2 41.6 0 -11.5
390 3 8 40 1.6 -11.4284
421 3 6.4 41.6 0 -11.4992
392 3 11.2 40 1.6 -11.415
423 3 9.6 41.6 0 -11.4958
394 3 14.4 40 1.6 -11.445
425 1 12.8 41.6 0 -11.9405
396 2 17.6 40 1.6 -10.0242
427 3 16 41.6 0 -11.4676
398 2 20.8 40 1.6 -9.90773
429 3 19.2 41.6 0 -11.5237
400 2 24 40 1.6 -9.98153
431 2 22.4 41.6 0 -9.96909
433 2 25.6 41.6 0 -9.95235
402 2 27.2 40 1.6 -9.92259
435 1 28.8 41.6 0 -11.8319
404 2 30.4 40 1.6 -9.90179
437 2 32 41.6 0 -9.89553
406 1 33.6 40 1.6 -11.8278
439 2 35.2 41.6 0 -9.94295
408 1 36.8 40 1.6 -11.9124
441 3 38.4 41.6 0 -11.566
410 3 40 40 1.6 -11.4951
443 3 41.6 41.6 0 -11.5555
412 2 43.2 40 1.6 -9.97584
445 2 44.8 41.6 0 -9.96261
414 2 46.4 40 1.6 -9.90846
447 3 48 41.6 0 -11.4705
416 3 49.6 40 1.6 -11.4687
418 3 1.6 43.2 1.6 -11.4968
449 1 0 44.8 0 -11.8835
420 3 4.8 43.2 1.6 -11.499
451 3 3.2 44.8 0 -11.465
422 1 8 43.2 1.6 -11.9345
453 2 6.4 44.8 0 -10.0021
424 3 11.2 43.2 1.6 -11.5272
455 3 9.6 44.8 0 -11.4303
426 3 14.4 43.2 1.6 -11.4996
457 2 12.8 44.8 0 -9.97111
428 3 17.6 43.2 1.6 -11.4855
459 3 16 44.8 0 -11.54
430 1 20.8 43.2 1.6 -11.9738
461 3 19.2 44.8 0 -11.5778
432 2 24 43.2 1.6 -9.92567
463 3 22.4 44.8 0 -11.5318
465 3 25.6 44.8 0 -11.4535
434 2 27.2 43.2 1.6 -9.90835
467 1 28.8 44.8 0 -11.952
436 3 30.4 43.2 1.6 -11.5027
469 3 32 44.8 0 -11.5429
438 2 33.6 43.2 1.6 -9.96615
471 3 35.2 44.8 0 -11.4908
440 2 36.8 43.2 1.6 -9.89475
473 3 38.4 44.8 0 -11.5379
442 1 40 43.2 1.6 -11.9848
475 3 41.6 44.8 0 -11.5303
444 1 43.2 43.2 1.6 -11.8725
477 2 44.8 44.8 0 -9.9648
446 2 46.4 43.2 1.6 -9.98808
479 2 48 44.8 0 -9.97949
448 3 49.6 43.2 1.6 -11.5237
450 3 1.6 46.4 1.6 -11.542
481 2 0 48 0 -9.97279
452 3 4.8 46.4 1.6 -11.5583
483 3 3.2 48 0 -11.5558
454 2 8 46.4 1.6 -9.95301
485 3 6.4 48 0 -11.5265
456 2 11.2 46.4 1.6 -9.94315
487 1 9.6 48 0 -11.7906
458 1 14.4 46.4 1.6 -11.9069
489 2 12.8 48 0 -10.0072
460 2 17.6 46.4 1.6 -9.94455
491 3 16 48 0 -11.5231
462 3 20.8 46.4 1.6 -11.5056
493 3 19.2 48 0 -11.551
464 3 24 46.4 1.6 -11.478
495 1 22.4 48 0 -11.9527
497 1 25.6 48 0 -11.9573
466 2 27.2 46.4 1.6 -9.99146
499 3 28.8 48 0 -11.5064
468 2 30.4 46.4 1.6 -9.99502
501 3 32 48 0 -11.5799
470 1 33.6 46.4 1.6 -11.9524
503 3 35.2 48 0 -11.405
472 1 36.8 46.4 1.6 -11.9278
505 3 38.4 48 0 -11.5707
474 3 40 46.4 1.6 -11.4962
507 2 41.6 48 0 -9.99113
476 2 43.2 46.4 1.6 -9.95488
509 1 44.8 48 0 -11.9266
478 3 46.4 46.4 1.6 -11.4948
511 2 48 48 0 -9.95768
480 2 49.6 46.4 1.6 -9.99893
482 3 1.6 49.6 1.6 -11.5322
484 3 4.8 49.6 1.6 -11.6237
486 2 8 49.6 1.6 -9.94098
488 2 11.2 49.6 1.6 -9.93162
490 3 14.4 49.6 1.6 -11.5087
492 3 17.6 49.6 1.6 -11.5586
494 3 20.8 49.6 1.6 -11.5332
496 3 24 49.6 1.6 -11.4425
498 3 27.2 49.6 1.6 -11.5299
500 2 30.4 49.6 1.6 -9.97366
502 1 33.6 49.6 1.6 -11.8224
504 1 36.8 49.6 1.6 -11.8604
506 3 40 49.6 1.6 -11.5674
508 3 43.2 49.6 1.6 -11.5088
510 3 46.4 49.6 1.6 -11.5076
512 1 49.6 49.6 1.6 -11.8905
513 2 0 0 3.2 -9.91694
514 3 1.6 1.6 4.8 -11.4608
515 1 3.2 0 3.2 -11.9616
516 3 4.8 1.6 4.8 -11.5874
517 3 6.4 0 3.2 -11.5679
518 3 8 1.6 4.8 -11.6465
519 1 9.6 0 3.2 -11.8913
520 3 11.2 1.6 4.8 -11.495
521 3 12.8 0 3.2 -11.5412
522 1 14.4 1.6 4.8 -11.963
523 3 16 0 3.2 -11.5396
524 3 17.6 1.6 4.8 -11.4569
525 1 19.2 0 3.2 -11.9352
526 2 20.8 1.6 4.8 -9.97489
527 1 22.4 0 3.2 -11.9177
528 3 24 1.6 4.8 -11.4736
529 2 25.6 0 3.2 -9.93412
530 2 27.2 1.6 4.8 -10.0149
531 2 28.8 0 3.2 -10.0199
532 2 30.4 1.6 4.8 -9.97663
533 2 32 0 3.2 -9.94049
534 3 33.6 1.6 4.8 -11.4124
535 2 35.2 0 3.2 -9.88793
536 3 36.8 1.6 4.8 -11.4291
537 3 38.4 0 3.2 -11.5148
538 3 40 1.6 4.8 -11.5002
539 3 41.6 0 3.2 -11.5287
540 1 43.2 1.6 4.8 -11.9332
541 3 44.8 0 3.2 -11.5548
542 3 46.4 1.6 4.8 -11.5438
543 3 48 0 3.2 -11.4426
544 3 49.6 1.6 4.8 -11.5094
545 1 0 3.2 3.2 -11.9179
546 3 1.6 4.8 4.8 -11.4093
547 1 3.2 3.2 3.2 -11.9008
548 3 4.8 4.8 4.8 -11.5184
549 3 6.4 3.2 3.2 -11.5958
550 3 8 4.8 4.8 -11.5325
551 3 9.6 3.2 3.2 -11.4841
552 1 11.2 4.8 4.8 -11.9195
553 2 12.8 3.2 3.2 -9.97091
554 1 14.4 4.8 4.8 -11.8689
555 3 16 3.2 3.2 -11.5095
556 3 17.6 4.8 4.8 -11.593
557 1 19.2 3.2 3.2 -11.9793
558 3 20.8 4.8 4.8 -11.5805
559 2 22.4 3.2 3.2 -9.94942
560 3 24 4.8 4.8 -11.5652
561 1 25.6 3.2 3.2 -11.9492
562 3 27.2 4.8 4.8 -11.4764
563 3 28.8 3.2 3.2 -11.5033
564 3 30.4 4.8 4.8 -11.5292
565 2 32 3.2 3.2 -9.9363
566 3 33.6 4.8 4.8 -11.4737
567 3 35.2 3.2 3.2 -11.4991
568 2 36.8 4.8 4.8 -9.97917
569 3 38.4 3.2 3.2 -11.515
570 2 40 4.8 4.8 -9.99103
571 2 41.6 3.2 3.2 -10.0218
572 3 43.2 4.8 4.8 -11.495
573 2 44.8 3.2 3.2 -10.0142
574 3 46.4 4.8 4.8 -11.5109
575 1 48 3.2 3.2 -11.8895
576 3 49.6 4.8 4.8 -11.4647
577 1 0 6.4 3.2 -11.8698
578 2 1.6 8 4.8 -9.93113
579 1 3.2 6.4 3.2 -11.8226
580 2 4.8 8 4.8 -9.94599
581 2 6.4 6.4 3.2 -9.98854
582 2 8 8 4.8 -9.93699
583 2 9.6 6.4 3.2 -9.98414
584 2 11.2 8 4.8 -9.95659
585 3 12.8 6.4 3.2 -11.3262
586 1 14.4 8 4.8 -11.8816
587 3 16 6.4 3.2 -11.4663
588 2 17.6 8 4.8 -9.93596
589 3 19.2 6.4 3.2 -11.49
590 1 20.8 8 4.8 -11.902
591 3 22.4 6.4 3.2 -11.5385
592 2 24 8 4.8 -9.97794
593 3 25.6 6.4 3.2 -11.5221
594 2 27.2 8 4.8 -10.0426
595 3 28.8 6.4 3.2 -11.5445
596 3 30.4 8 4.8 -11.4618
597 1 32 6.4 3.2 -11.9435
598 3 33.6 8 4.8 -11.4992
599 3 35.2 6.4 3.2 -11.517
600 1 36.8 8 4.8 -11.9045
601 2 38.4 6.4 3.2 -9.95207
602 1 40 8 4.8 -11.8556
603 2 41.6 6.4 3.2 -10.0116
604 3 43.2 8 4.8 -11.5666
605 3 44.8 6.4 3.2 -11.4728
606 2 46.4 8 4.8 -9.93063
607 1 48 6.4 3.2 -11.7978
608 3 49.6 8 4.8 -11.4371
609 2 0 9.6 3.2 -9.94257
610 3 1.6 11.2 4.8 -11.4859
611 1 3.2 9.6 3.2 -11.8129
612 3 4.8 11.2 4.8 -11.4243
613 2 6.4 9.6 3.2 -9.90142
614 1 8 11.2 4.8 -11.8663
615 2 9.6 9.6 3.2 -9.97298
616 3 11.2 11.2 4.8 -11.5209
617 2 12.8 9.6 3.2 -10.0177
618 3 14.4 11.2 4.8 -11.4592
619 3 16 9.6 3.2 -11.5195
620 3 17.6 11.2 4.8 -11.5615
621 3 19.2 9.6 3.2 -11.4372
622 2 20.8 11.2 4.8 -9.92691
623 3 22.4 9.6 3.2 -11.4652
624 3 24 11.2 4.8 -11.5366
625 3 25.6 9.6 3.2 -11.6235
626 3 27.2 11.2 4.8 -11.5278
627 2 28.8 9.6 3.2 -9.95904
628 2 30.4 11.2 4.8 -9.95927
629 1 32 9.6 3.2 -11.8456
630 3 33.6 11.2 4.8 -11.5421
631 2 35.2 9.6 3.2 -10.012
632 3 36.8 11.2 4.8 -11.4955
633 3 38.4 9.6 3.2 -11.505
634 1 40 11.2 4.8 -11.9139
635 3 41.6 9.6 3.2 -11.4883
636 2 43.2 11.2 4.8 -9.9367
637 2 44.8 9.6 3.2 -9.98353
638 1 46.4 11.2 4.8 -11.8303
639 3 48 9.6 3.2 -11.3796
640 2 49.6 11.2 4.8 -10.0019
641 2 0 12.8 3.2 -10.0007
642 2 1.6 14.4 4.8 -9.97088
643 3 3.2 12.8 3.2 -11.4118
644 2 4.8 14.4 4.8 -9.99906
645 2 6.4 12.8 3.2 -9.93613
646 1 8 14.4 4.8 -11.9001
647 3 9.6 12.8 3.2 -11.4385
648 3 11.2 14.4 4.8 -11.5446
649 3 12.8 12.8 3.2 -11.5173
650 1 14.4 14.4 4.8 -11.9091
651 2 16 12.8 3.2 -9.98646
652 3 17.6 14.4 4.8 -11.4708
653 2 19.2 12.8 3.2 -9.98509
654 3 20.8 14.4 4.8 -11.4815
655 3 22.4 12.8 3.2 -11.5426
656 3 24 14.4 4.8 -11.5017
657 3 25.6 12.8 3.2 -11.5086
658 2 27.2 14.4 4.8 -9.98212
659 2 28.8 12.8 3.2 -9.91556
660 3 30.4 14.4 4.8 -11.3732
661 1 32 12.8 3.2 -11.8307
662 2 33.6 14.4 4.8 -9.96924
663 2 35.2 12.8 3.2 -10.0029
664 2 36.8 14.4 4.8 -9.96528
665 3 38.4 12.8 3.2 -11.4638
666 1 40 14.4 4.8 -11.8536
667 3 41.6 12.8 3.2 -11.4876
668 3 43.2 14.4 4.8 -11.5046
669 2 44.8 12.8 3.2 -9.99194
670 2 46.4 14.4 4.8 -9.99366
671 2 48 12.8 3.2 -9.94578
672 3 49.6 14.4 4.8 -11.5204
673 3 0 16 3.2 -11.4715
674 1 1.6 17.6 4.8 -11.9172
675 2 3.2 16 3.2 -9.97504
676 3 4.8 17.6 4.8 -11.5442
677 3 6.4 16 3.2 -11.4699
678 2 8 17.6 4.8 -9.97657
679 3 9.6 16 3.2 -11.5016
680 3 11.2 17.6 4.8 -11.5879
681 2 12.8 16 3.2 -9.97911
682 2 14.4 17.6 4.8 -9.95089
683 2 16 16 3.2 -9.9828
684 2 17.6 17.6 4.8 -10.0463
685 2 19.2 16 3.2 -9.99812
686 3 20.8 17.6 4.8 -11.5605
687 3 22.4 16 3.2 -11.5767
688 3 24 17.6 4.8 -11.5474
689 2 25.6 16 3.2 -9.94576
690 2 27.2 17.6 4.8 -10.0075
691 1 28.8 16 3.2 -11.9188
692 3 30.4 17.6 4.8 -11.4936
693 1 32 16 3.2 -11.8691
694 3 33.6 17.6 4.8 -11.4722
695 2 35.2 16 3.2 -9.96044
696 2 36.8 17.6 4.8 -10.0023
697 2 38.4 16 3.2 -9.94938
698 2 40 17.6 4.8 -9.98453
699 3 41.6 16 3.2 -11.5539
700 2 43.2 17.6 4.8 -10.0434
701 3 44.8 16 3.2 -11.542
702 2 46.4 17.6 4.8 -9.98336
703 2 48 16 3.2 -9.96693
704 3 49.6 17.6 4.8 -11.499
705 3 0 19.2 3.2 -11.4781
706 1 1.6 20.8 4.8 -11.9394
707 3 3.2 19.2 3.2 -11.493
708 3 4.8 20.8 4.8 -11.5814
709 3 6.4 19.2 3.2 -11.5204
710 2 8 20.8 4.8 -9.98794
711 2 9.6 19.2 3.2 -10.0006
712 3 11.2 20.8 4.8 -11.6009
713 1 12.8 19.2 3.2 -11.8968
714 2 14.4 20.8 4.8 -9.94096
715 2 16 19.2 3.2 -9.93246
716 3 17.6 20.8 4.8 -11.5531
717 3 19.2 19.2 3.2 -11.5093
718 3 20.8 20.8 4.8 -11.5766
719 3 22.4 19.2 3.2 -11.5891
720 2 24 20.8 4.8 -9.97888
721 3 25.6 19.2 3.2 -11.4899
722 2 27.2 20.8 4.8 -9.92679
723 1 28.8 19.2 3.2 -11.8431
724 2 30.4 20.8 4.8 -9.94704
725 1 32 19.2 3.2 -11.8853
726 3 33.6 20.8 4.8 -11.5321
727 2 35.2 19.2 3.2 -9.88031
728 3 36.8 20.8 4.8 -11.4946
729 2 38.4 19.2 3.2 -9.98393
730 3 40 20.8 4.8 -11.457
731 2 41.6 19.2 3.2 -10.041
732 2 43.2 20.8 4.8 -10.0323
733 3 44.8 19.2 3.2 -11.5041
734 2 46.4 20.8 4.8 -9.99013
735 2 48 19.2 3.2 -9.96926
736 3 49.6 20.8 4.8 -11.5301
737 3 0 22.4 3.2 -11.4256
738 1 1.6 24 4.8 -11.8807
739 3 3.2 22.4 3.2 -11.4587
740 3 4.8 24 4.8 -11.4478
741 3 6.4 22.4 3.2 -11.5208
742 2 8 24 4.8 -10.0119
743 3 9.6 22.4 3.2 -11.5544
744 2 11.2 24 4.8 -9.98108
745 3 12.8 22.4 3.2 -11.5043
746 1 14.4 24 4.8 -11.882
747 2 16 22.4 3.2 -9.946
748 3 17.6 24 4.8 -11.5148
749 3 19.2 22.4 3.2 -11.4845
750 2 20.8 24 4.8 -9.99865
751 1 22.4 22.4 3.2 -11.8539
752 2 24 24 4.8 -9.90965
753 2 25.6 22.4 3.2 -9.94361
754 2 27.2 24 4.8 -9.94274
755 1 28.8 22.4 3.2 -11.8685
756 2 30.4 24 4.8 -9.99917
757 3 32 22.4 3.2 -11.4595
758 2 33.6 24 4.8 -10.0006
759 1 35.2 22.4 3.2 -11.8931
760 3 36.8 24 4.8 -11.3288
761 2 38.4 22.4 3.2 -9.92852
762 2 40 24 4.8 -9.91381
763 2 41.6 22.4 3.2 -9.97158
764 2 43.2 24 4.8 -9.90812
765 2 44.8 22.4 3.2 -9.98568
766 2 46.4 24 4.8 -9.94939
767 2 48 22.4 3.2 -9.93772
768 2 49.6 24 4.8 -9.93841
769 2 0 25.6 3.2 -9.89877
771 2 3.2 25.6 3.2 -9.97519
773 2 6.4 25.6 3.2 -9.96981
775 2 9.6 25.6 3.2 -10.015
777 3 12.8 25.6 3.2 -11.4319
779 2 16 25.6 3.2 -9.95518
781 2 19.2 25.6 3.2 -10.0062
783 2 22.4 25.6 3.2 -9.89899
785 2 25.6 25.6 3.2 -9.98147
787 2 28.8 25.6 3.2 -9.95275
789 3 32 25.6 3.2 -11.4825
791 1 35.2 25.6 3.2 -11.8293
793 1 38.4 25.6 3.2 -11.7612
795 1 41.6 25.6 3.2 -11.8294
797 1 44.8 25.6 3.2 -11.8784
799 1 48 25.6 3.2 -11.8241
770 2 1.6 27.2 4.8 -9.93401
801 2 0 28.8 3.2 -9.91384
772 3 4.8 27.2 4.8 -11.5428
803 3 3.2 28.8 3.2 -11.5029
774 3 8 27.2 4.8 -11.4203
805 2 6.4 28.8 3.2 -10.0003
776 1 11.2 27.2 4.8 -11.8747
807 3 9.6 28.8 3.2 -11.3523
778 2 14.4 27.2 4.8 -9.9489
809 2 12.8 28.8 3.2 -9.91332
780 3 17.6 27.2 4.8 -11.4595
811 1 16 28.8 3.2 -11.9289
782 2 20.8 27.2 4.8 -9.94377
813 3 19.2 28.8 3.2 -11.4831
784 1 24 27.2 4.8 -11.8429
815 2 22.4 28.8 3.2 -10.0104
817 3 25.6 28.8 3.2 -11.5496
786 3 27.2 27.2 4.8 -11.4566
819 3 28.8 28.8 3.2 -11.5206
788 3 30.4 27.2 4.8 -11.545
821 3 32 28.8 3.2 -11.5457
790 3 33.6 27.2 4.8 -11.552
823 3 35.2 28.8 3.2 -11.4669
792 2 36.8 27.2 4.8 -9.98288
825 2 38.4 28.8 3.2 -9.95112
794 2 40 27.2 4.8 -9.93626
827 2 41.6 28.8 3.2 -9.91812
796 3 43.2 27.2 4.8 -11.3623
829 1 44.8 28.8 3.2 -11.9353
798 3 46.4 27.2 4.8 -11.3585
831 1 48 28.8 3.2 -11.7917
800 2 49.6 27.2 4.8 -9.90668
802 1 1.6 30.4 4.8 -11.8742
833 3 0 32 3.2 -11.3366
804 2 4.8 30.4 4.8 -9.91164
835 3 3.2 32 3.2 -11.522
806 1 8 30.4 4.8 -11.8809
837 3 6.4 32 3.2 -11.4649
808 1 11.2 30.4 4.8 -11.8568
839 3 9.6 32 3.2 -11.4897
810 3 14.4 30.4 4.8 -11.4312
841 3 12.8 32 3.2 -11.4731
812 3 17.6 30.4 4.8 -11.5293
843 2 16 32 3.2 -9.96645
814 3 20.8 30.4 4.8 -11.4866
845 3 19.2 32 3.2 -11.5759
816 2 24 30.4 4.8 -9.95357
847 3 22.4 32 3.2 -11.4593
849 2 25.6 32 3.2 -10.0262
818 3 27.2 30.4 4.8 -11.5563
851 2 28.8 32 3.2 -9.91105
820 3 30.4 30.4 4.8 -11.505
853 1 32 32 3.2 -11.9299
822 2 33.6 30.4 4.8 -10.0365
855 3 35.2 32 3.2 -11.4897
824 2 36.8 30.4 4.8 -9.94426
857 3 38.4 32 3.2 -11.5961
826 3 40 30.4 4.8 -11.555
859 3 41.6 32 3.2 -11.5307
828 3 43.2 30.4 4.8 -11.5323
861 3 44.8 32 3.2 -11.5695
830 3 46.4 30.4 4.8 -11.3623
863 2 48 32 3.2 -9.9069
832 1 49.6 30.4 4.8 -11.7436
834 1 1.6 33.6 4.8 -11.9021
865 3 0 35.2 3.2 -11.5162
836 2 4.8 33.6 4.8 -9.9106
867 2 3.2 35.2 3.2 -10.0214
838 1 8 33.6 4.8 -11.9136
869 2 6.4 35.2 3.2 -9.9438
840 3 11.2 33.6 4.8 -11.4197
871 2 9.6 35.2 3.2 -9.93113
842 2 14.4 33.6 4.8 -9.99308
873 1 12.8 35.2 3.2 -11.8559
844 2 17.6 33.6 4.8 -9.98769
875 1 16 35.2 3.2 -11.9263
846 1 20.8 33.6 4.8 -11.8832
877 3 19.2 35.2 3.2 -11.4592
848 2 24 33.6 4.8 -9.96476
879 2 22.4 35.2 3.2 -9.93772
881 3 25.6 35.2 3.2 -11.5627
850 2 27.2 33.6 4.8 -10.0007
883 2 28.8 35.2 3.2 -9.97949
852 3 30.4 33.6 4.8 -11.379
885 3 32 35.2 3.2 -11.4609
854 3 33.6 33.6 4.8 -11.4949
887 2 35.2 35.2 3.2 -9.98732
856 1 36.8 33.6 4.8 -11.8872
889 3 38.4 35.2 3.2 -11.4166
858 3 40 33.6 4.8 -11.5209
891 1 41.6 35.2 3.2 -11.9863
860 3 43.2 33.6 4.8 -11.5369
893 3 44.8 35.2 3.2 -11.4787
862 1 46.4 33.6 4.8 -11.8961
895 3 48 35.2 3.2 -11.4397
864 1 49.6 33.6 4.8 -11.8088
866 3 1.6 36.8 4.8 -11.5264
897 3 0 38.4 3.2 -11.3485
868 3 4.8 36.8 4.8 -11.4998
899 1 3.2 38.4 3.2 -11.9351
870 2 8 36.8 4.8 -9.96261
901 1 6.4 38.4 3.2 -11.9059
872 3 11.2 36.8 4.8 -11.3342
903 1 9.6 38.4 3.2 -11.8776
874 3 14.4 36.8 4.8 -11.4128
905 1 12.8 38.4 3.2 -11.8773
876 3 17.6 36.8 4.8 -11.5558
907 3 16 38.4 3.2 -11.4486
878 1 20.8 36.8 4.8 -11.8321
909 3 19.2 38.4 3.2 -11.5544
880 1 24 36.8 4.8 -11.9084
911 2 22.4 38.4 3.2 -9.88391
913 3 25.6 38.4 3.2 -11.4463
882 3 27.2 36.8 4.8 -11.4922
915 1 28.8 38.4 3.2 -11.9337
884 3 30.4 36.8 4.8 -11.589
917 3 32 38.4 3.2 -11.5128
886 3 33.6 36.8 4.8 -11.5378
919 3 35.2 38.4 3.2 -11.3863
888 1 36.8 36.8 4.8 -11.8656
921 3 38.4 38.4 3.2 -11.5308
890 3 40 36.8 4.8 -11.4951
923 3 41.6 38.4 3.2 -11.4614
892 3 43.2 36.8 4.8 -11.5628
925 1 44.8 38.4 3.2 -11.8895
894 3 46.4 36.8 4.8 -11.4606
927 1 48 38.4 3.2 -11.8737
896 2 49.6 36.8 4.8 -9.97434
898 3 1.6 40 4.8 -11.4966
929 1 0 41.6 3.2 -11.9505
900 3 4.8 40 4.8 -11.4921
931 1 3.2 41.6 3.2 -11.9169
902 3 8 40 4.8 -11.5125
933 2 6.4 41.6 3.2 -9.98933
904 3 11.2 40 4.8 -11.4898
935 3 9.6 41.6 3.2 -11.4858
906 3 14.4 40 4.8 -11.5343
937 1 12.8 41.6 3.2 -11.9438
908 3 17.6 40 4.8 -11.5815
939 1 16 41.6 3.2 -11.9875
910 1 20.8 40 4.8 -11.8742
941 3 19.2 41.6 3.2 -11.512
912 2 24 40 4.8 -9.88105
943 2 22.4 41.6 3.2 -9.94611
945 1 25.6 41.6 3.2 -11.8054
914 2 27.2 40 4.8 -9.97196
947 2 28.8 41.6 3.2 -9.87512
916 3 30.4 40 4.8 -11.5436
949 2 32 41.6 3.2 -10.0112
918 1 33.6 40 4.8 -11.8871
951 3 35.2 41.6 3.2 -11.3743
920 1 36.8 40 4.8 -11.8924
953 3 38.4 41.6 3.2 -11.5326
922 2 40 40 4.8 -9.99734
955 2 41.6 41.6 3.2 -9.98659
924 3 43.2 40 4.8 -11.4494
957 2 44.8 41.6 3.2 -9.95319
926 2 46.4 40 4.8 -9.95768
959 3 48 41.6 3.2 -11.4031
928 3 49.6 40 4.8 -11.3666
930 3 1.6 43.2 4.8 -11.5255
961 3 0 44.8 3.2 -11.4746
932 2 4.8 43.2 4.8 -9.9846
963 1 3.2 44.8 3.2 -11.9707
934 2 8 43.2 4.8 -9.98869
965 3 6.4 44.8 3.2 -11.4852
936 3 11.2 43.2 4.8 -11.5822
967 2 9.6 44.8 3.2 -10.0283
938 3 14.4 43.2 4.8 -11.5416
969 3 12.8 44.8 3.2 -11.4888
940 3 17.6 43.2 4.8 -11.567
971 2 16 44.8 3.2 -9.96264
942 2 20.8 43.2 4.8 -9.96697
973 3 19.2 44.8 3.2 -11.5544
944 3 24 43.2 4.8 -11.4567
975 3 22.4 44.8 3.2 -11.5045
977 2 25.6 44.8 3.2 -9.953
946 1 27.2 43.2 4.8 -11.8539
979 3 28.8 44.8 3.2 -11.44
948 3 30.4 43.2 4.8 -11.5284
981 3 32 44.8 3.2 -11.5234
950 2 33.6 43.2 4.8 -9.98412
983 3 35.2 44.8 3.2 -11.5291
952 2 36.8 43.2 4.8 -9.97988
985 3 38.4 44.8 3.2 -11.585
954 3 40 43.2 4.8 -11.4878
987 3 41.6 44.8 3.2 -11.4496
956 2 43.2 43.2 4.8 -9.96792
989 3 44.8 44.8 3.2 -11.4869
958 2 46.4 43.2 4.8 -10.0034
991 2 48 44.8 3.2 -10.0177
960 3 49.6 43.2 4.8 -11.5069
962 3 1.6 46.4 4.8 -11.5965
993 3 0 48 3.2 -11.5318
964 2 4.8 46.4 4.8 -10.0244
995 3 3.2 48 3.2 -11.5673
966 3 8 46.4 4.8 -11.5185
997 3 6.4 48 3.2 -11.6124
968 3 11.2 46.4 4.8 -11.4966
999 1 9.6 48 3.2 -11.8542
970 1 14.4 46.4 4.8 -11.851
1001 3 12.8 48 3.2 -11.4451
972 1 17.6 46.4 4.8 -11.8809
1003 2 16 48 3.2 -9.925
974 2 20.8 46.4 4.8 -9.97832
1005 3 19.2 48 3.2 -11.4804
976 3 24 46.4 4.8 -11.48
1007 1 22.4 48 3.2 -11.8908
1009 1 25.6 48 3.2 -11.8946
978 2 27.2 46.4 4.8 -9.95562
1011 2 28.8 48 3.2 -10.0033
980 2 30.4 46.4 4.8 -9.95742
1013 3 32 48 3.2 -11.4201
982 2 33.6 46.4 4.8 -9.94296
1015 3 35.2 48 3.2 -11.4316
984 2 36.8 46.4 4.8 -10.0012
1017 2 38.4 48 3.2 -10.0031
986 3 40 46.4 4.8 -11.6032
1019 1 41.6 48 3.2 -11.9504
988 3 43.2 46.4 4.8 -11.5149
1021 1 44.8 48 3.2 -11.9121
990 3 46.4 46.4 4.8 -11.5003
1023 2 48 48 3.2 -9.95713
992 3 49.6 46.4 4.8 -11.5201
994 3 1.6 49.6 4.8 -11.5707
996 3 4.8 49.6 4.8 -11.6454
998 3 8 49.6 4.8 -11.5361
1000 3 11.2 49.6 4.8 -11.4912
1002 1 14.4 49.6 4.8 -11.9126
1004 2 17.6 49.6 4.8 -9.96948
1006 3 20.8 49.6 4.8 -11.4225
1008 3 24 49.6 4.8 -11.465
1010 3 27.2 49.6 4.8 -11.5291
1012 2 30.4 49.6 4.8 -9.97418
1014 2 33.6 49.6 4.8 -9.97308
1016 3 36.8 49.6 4.8 -11.4824
1018 3 40 49.6 4.8 -11.5547
1020 2 43.2 49.6 4.8 -9.96562
1022 3 46.4 49.6 4.8 -11.5464
1024 3 49.6 49.6 4.8 -11.4369
1025 1 0 0 6.4 -11.9263
1026 3 1.6 1.6 8 -11.4117
1027 2 3.2 0 6.4 -9.94035
1028 3 4.8 1.6 8 -11.5665
1029 3 6.4 0 6.4 -11.5444
1030 3 8 1.6 8 -11.5099
1031 1 9.6 0 6.4 -11.9502
1032 3 11.2 1.6 8 -11.5806
1033 3 12.8 0 6.4 -11.5665
1034 3 14.4 1.6 8 -11.4826
1035 3 16 0 6.4 -11.5057
1036 1 17.6 1.6 8 -11.9219
1037 3 19.2 0 6.4 -11.491
1038 1 20.8 1.6 8 -11.9302
1039 2 22.4 0 6.4 -9.97288
1040 2 24 1.6 8 -10.0125
1041 3 25.6 0 6.4 -11.4426
1042 3 27.2 1.6 8 -11.5039
1043 2 28.8 0 6.4 -10.0003
1044 1 30.4 1.6 8 -11.8526
1045 2 32 0 6.4 -9.82935
1046 2 33.6 1.6 8 -9.91025
1047 1 35.2 0 6.4 -11.8799
1048 3 36.8 1.6 8 -11.4591
1049 1 38.4 0 6.4 -11.9434
1050 3 40 1.6 8 -11.4813
1051 2 41.6 0 6.4 -9.95251
1052 1 43.2 1.6 8 -11.8637
1053 3 44.8 0 6.4 -11.4622
1054 3 46.4 1.6 8 -11.5922
1055 1 48 0 6.4 -11.9809
1056 3 49.6 1.6 8 -11.527
1057 3 0 3.2 6.4 -11.4124
1058 2 1.6 4.8 8 -9.98465
1059 1 3.2 3.2 6.4 -11.9168
1060 2 4.8 4.8 8 -9.99141
1061 3 6.4 3.2 6.4 -11.6036
1062 1 8 4.8 8 -11.9006
1063 3 9.6 3.2 6.4 -11.5376
1064 1 11.2 4.8 8 -11.95
1065 3 12.8 3.2 6.4 -11.5027
1066 2 14.4 4.8 8 -9.94502
1067 3 16 3.2 6.4 -11.5675
1068 3 17.6 4.8 8 -11.5644
1069 3 19.2 3.2 6.4 -11.5652
1070 3 20.8 4.8 8 -11.5541
1071 3 22.4 3.2 6.4 -11.5422
1072 3 24 4.8 8 -11.5407
1073 1 25.6 3.2 6.4 -11.9304
1074 3 27.2 4.8 8 -11.5015
1075 2 28.8 3.2 6.4 -9.95308
1076 3 30.4 4.8 8 -11.4291
1077 2 32 3.2 6.4 -9.92383
1078 2 33.6 4.8 8 -10.0132
1079 1 35.2 3.2 6.4 -11.8957
1080 3 36.8 4.8 8 -11.433
1081 1 38.4 3.2 6.4 -11.9269
1082 3 40 4.8 8 -11.5565
1083 3 41.6 3.2 6.4 -11.4376
1084 1 43.2 4.8 8 -11.9706
1085 3 44.8 3.2 6.4 -11.5654
1086 2 46.4 4.8 8 -10.0047
1087 3 48 3.2 6.4 -11.4874
1088 2 49.6 4.8 8 -10.0321
1089 3 0 6.4 6.4 -11.5088
1090 3 1.6 8 8 -11.5031
1091 2 3.2 6.4 6.4 -9.92746
1092 3 4.8 8 8 -11.4616
1093 3 6.4 6.4 6.4 -11.558
1094 1 8 8 8 -11.858
1095 3 9.6 6.4 6.4 -11.4591
1096 3 11.2 8 8 -11.3382
1097 3 12.8 6.4 6.4 -11.4196
1098 1 14.4 8 8 -11.9029
1099 3 16 6.4 6.4 -11.5525
1100 2 17.6 8 8 -9.96931
1101 3 19.2 6.4 6.4 -11.5933
1102 1 20.8 8 8 -11.9101
1103 3 22.4 6.4 6.4 -11.5387
1104 3 24 8 8 -11.5195