ITEM: TIMESTEP
0
ITEM: NUMBER OF ATOMS
8192
ITEM: BOX BOUNDS pp pp pp
0.0000000000000000e+00 5.1200000000000003e+01
0.0000000000000000e+00 5.1200000000000003e+01
0.0000000000000000e+00 5.1200000000000003e+01
ITEM: ATOMS id type x y z c_eng
1 2 0 0 0 -10.0017
2 3 1.6 1.6 1.6 -11.4572
3 3 3.2 0 0 -11.5304
4 3 4.8 1.6 1.6 -11.4788
5 3 6.4 0 0 -11.6041
6 3 8 1.6 1.6 -11.5422
7 3 9.6 0 0 -11.533
8 3 11.2 1.6 1.6 -11.6133
9 3 12.8 0 0 -11.5505
10 3 14.4 1.6 1.6 -11.4476
11 2 16 0 0 -10.0103
12 3 17.6 1.6 1.6 -11.4959
13 3 19.2 0 0 -11.3868
14 3 20.8 1.6 1.6 -11.4965
15 3 22.4 0 0 -11.557
16 3 24 1.6 1.6 -11.551
17 3 25.6 0 0 -11.4313
18 3 27.2 1.6 1.6 -11.3899
19 2 28.8 0 0 -9.95383
20 3 30.4 1.6 1.6 -11.5275
21 2 32 0 0 -9.97694
22 2 33.6 1.6 1.6 -9.98581
23 3 35.2 0 0 -11.4925
24 1 36.8 1.6 1.6 -11.9121
25 3 38.4 0 0 -11.5006
26 1 40 1.6 1.6 -11.8882
27 2 41.6 0 0 -9.97485
28 1 43.2 1.6 1.6 -11.8489
29 3 44.8 0 0 -11.5406
30 2 46.4 1.6 1.6 -9.99329
31 3 48 0 0 -11.5289
32 3 49.6 1.6 1.6 -11.4652
33 1 0 3.2 0 -11.7629
34 3 1.6 4.8 1.6 -11.4661
35 3 3.2 3.2 0 -11.447
36 3 4.8 4.8 1.6 -11.5018
37 3 6.4 3.2 0 -11.4633
38 2 8 4.8 1.6 -9.93424
39 1 9.6 3.2 0 -11.9448
40 2 11.2 4.8 1.6 -10.0141
41 2 12.8 3.2 0 -10.0098
42 1 14.4 4.8 1.6 -11.8948
43 3 16 3.2 0 -11.4708
44 3 17.6 4.8 1.6 -11.51
45 1 19.2 3.2 0 -11.8794
46 3 20.8 4.8 1.6 -11.5121
47 2 22.4 3.2 0 -9.95578
48 3 24 4.8 1.6 -11.4277
49 3 25.6 3.2 0 -11.3491
50 1 27.2 4.8 1.6 -11.8273
51 2 28.8 3.2 0 -9.9212
52 3 30.4 4.8 1.6 -11.4645
53 1 32 3.2 0 -11.9784
54 3 33.6 4.8 1.6 -11.5113
55 3 35.2 3.2 0 -11.4949
56 1 36.8 4.8 1.6 -11.9801
57 3 38.4 3.2 0 -11.4027
58 2 40 4.8 1.6 -9.92679
59 3 41.6 3.2 0 -11.3759
60 2 43.2 4.8 1.6 -9.96304
61 3 44.8 3.2 0 -11.4272
62 2 46.4 4.8 1.6 -9.93068
63 3 48 3.2 0 -11.4259
64 3 49.6 4.8 1.6 -11.405
65 3 0 6.4 0 -11.4367
66 3 1.6 8 1.6 -11.4834
67 2 3.2 6.4 0 -9.9883
68 3 4.8 8 1.6 -11.4271
69 2 6.4 6.4 0 -9.98047
70 1 8 8 1.6 -11.8202
71 2 9.6 6.4 0 -9.92476
72 3 11.2 8 1.6 -11.4681
73 3 12.8 6.4 0 -11.4924
74 2 14.4 8 1.6 -9.97589
75 2 16 6.4 0 -9.99175
76 2 17.6 8 1.6 -9.97711
77 2 19.2 6.4 0 -9.94378
78 2 20.8 8 1.6 -9.89649
79 3 22.4 6.4 0 -11.4291
80 1 24 8 1.6 -11.9384
81 3 25.6 6.4 0 -11.442
82 3 27.2 8 1.6 -11.4782
83 3 28.8 6.4 0 -11.4039
84 3 30.4 8 1.6 -11.3462
85 1 32 6.4 0 -11.9278
86 3 33.6 8 1.6 -11.435
87 3 35.2 6.4 0 -11.5221
88 3 36.8 8 1.6 -11.5562
89 3 38.4 6.4 0 -11.5742
90 2 40 8 1.6 -9.94121
91 2 41.6 6.4 0 -9.99934
92 2 43.2 8 1.6 -9.9483
93 3 44.8 6.4 0 -11.4314
94 2 46.4 8 1.6 -9.88162
95 3 48 6.4 0 -11.3934
96 2 49.6 8 1.6 -9.98161
97 2 0 9.6 0 -9.92413
98 3 1.6 11.2 1.6 -11.5257
99 1 3.2 9.6 0 -11.9226
100 3 4.8 11.2 1.6 -11.5719
101 3 6.4 9.6 0 -11.4698
102 2 8 11.2 1.6 -9.9122
103 3 9.6 9.6 0 -11.4602
104 1 11.2 11.2 1.6 -11.8111
105 2 12.8 9.6 0 -9.99559
106 3 14.4 11.2 1.6 -11.4583
107 2 16 9.6 0 -9.96525
108 2 17.6 11.2 1.6 -9.9954
109 2 19.2 9.6 0 -9.90141
110 2 20.8 11.2 1.6 -9.98492
111 2 22.4 9.6 0 -9.97517
112 3 24 11.2 1.6 -11.4986
113 2 25.6 9.6 0 -9.95895
114 3 27.2 11.2 1.6 -11.461
115 1 28.8 9.6 0 -11.8961
116 2 30.4 11.2 1.6 -9.91362
117 1 32 9.6 0 -11.826
118 3 33.6 11.2 1.6 -11.4671
119 1 35.2 9.6 0 -11.9415
120 3 36.8 11.2 1.6 -11.4966
121 3 38.4 9.6 0 -11.4244
122 1 40 11.2 1.6 -11.8925
123 2 41.6 9.6 0 -9.93874
124 2 43.2 11.2 1.6 -9.9908
125 2 44.8 9.6 0 -9.90011
126 2 46.4 11.2 1.6 -9.90457
127 1 48 9.6 0 -11.8147
128 2 49.6 11.2 1.6 -10.0043
129 3 0 12.8 0 -11.6164
130 1 1.6 14.4 1.6 -11.8994
131 3 3.2 12.8 0 -11.5094
132 3 4.8 14.4 1.6 -11.5353
133 3 6.4 12.8 0 -11.5533
134 1 8 14.4 1.6 -11.8214
135 2 9.6 12.8 0 -9.90814
136 1 11.2 14.4 1.6 -11.8005
137 2 12.8 12.8 0 -9.89994
138 2 14.4 14.4 1.6 -9.98451
139 1 16 12.8 0 -11.9133
140 3 17.6 14.4 1.6 -11.511
141 2 19.2 12.8 0 -9.90308
142 2 20.8 14.4 1.6 -10.013
143 3 22.4 12.8 0 -11.4391
144 2 24 14.4 1.6 -10.0118
145 1 25.6 12.8 0 -11.9183
146 2 27.2 14.4 1.6 -9.94784
147 2 28.8 12.8 0 -9.91891
148 2 30.4 14.4 1.6 -9.95626
149 3 32 12.8 0 -11.4902
150 3 33.6 14.4 1.6 -11.4497
151 2 35.2 12.8 0 -9.96915
152 3 36.8 14.4 1.6 -11.4446
153 3 38.4 12.8 0 -11.5145
154 3 40 14.4 1.6 -11.52
155 3 41.6 12.8 0 -11.5461
156 3 43.2 14.4 1.6 -11.6228
157 2 44.8 12.8 0 -9.99914
158 3 46.4 14.4 1.6 -11.5198
159 2 48 12.8 0 -9.95833
160 3 49.6 14.4 1.6 -11.529
161 3 0 16 0 -11.4429
162 1 1.6 17.6 1.6 -11.8071
163 1 3.2 16 0 -11.8522
164 3 4.8 17.6 1.6 -11.4621
165 3 6.4 16 0 -11.4785
166 1 8 17.6 1.6 -11.9409
167 3 9.6 16 0 -11.3852
168 3 11.2 17.6 1.6 -11.4179
169 2 12.8 16 0 -10.0015
170 3 14.4 17.6 1.6 -11.4395
171 3 16 16 0 -11.4432
172 3 17.6 17.6 1.6 -11.5234
173 1 19.2 16 0 -11.9147
174 3 20.8 17.6 1.6 -11.5198
175 2 22.4 16 0 -10.0228
176 2 24 17.6 1.6 -10.0583
177 3 25.6 16 0 -11.374
178 2 27.2 17.6 1.6 -9.91944
179 1 28.8 16 0 -11.8297
180 3 30.4 17.6 1.6 -11.3409
181 2 32 16 0 -9.95713
182 3 33.6 17.6 1.6 -11.5338
183 2 35.2 16 0 -9.93044
184 3 36.8 17.6 1.6 -11.5369
185 2 38.4 16 0 -10.0619
186 3 40 17.6 1.6 -11.6744
187 2 41.6 16 0 -9.98238
188 3 43.2 17.6 1.6 -11.633
189 1 44.8 16 0 -11.9513
190 3 46.4 17.6 1.6 -11.5294
191 2 48 16 0 -9.96661
192 3 49.6 17.6 1.6 -11.5661
193 3 0 19.2 0 -11.4533
194 1 1.6 20.8 1.6 -11.8486
195 2 3.2 19.2 0 -9.95121
196 1 4.8 20.8 1.6 -11.9029
197 3 6.4 19.2 0 -11.433
198 1 8 20.8 1.6 -11.878
199 3 9.6 19.2 0 -11.5308
200 3 11.2 20.8 1.6 -11.4846
201 3 12.8 19.2 0 -11.4679
202 2 14.4 20.8 1.6 -9.91313
203 2 16 19.2 0 -9.97852
204 1 17.6 20.8 1.6 -11.8223
205 1 19.2 19.2 0 -11.8333
206 2 20.8 20.8 1.6 -9.95708
207 3 22.4 19.2 0 -11.5186
208 3 24 20.8 1.6 -11.5624
209 2 25.6 19.2 0 -9.97482
210 3 27.2 20.8 1.6 -11.4245
211 1 28.8 19.2 0 -11.8289
212 3 30.4 20.8 1.6 -11.5209
213 3 32 19.2 0 -11.4582
214 3 33.6 20.8 1.6 -11.4319
215 2 35.2 19.2 0 -9.92364
216 2 36.8 20.8 1.6 -9.93346
217 3 38.4 19.2 0 -11.6193
218 3 40 20.8 1.6 -11.5641
219 3 41.6 19.2 0 -11.5541
220 3 43.2 20.8 1.6 -11.5629
221 1 44.8 19.2 0 -11.947
222 3 46.4 20.8 1.6 -11.441
223 1 48 19.2 0 -11.8632
224 3 49.6 20.8 1.6 -11.5246
225 3 0 22.4 0 -11.4824
226 1 1.6 24 1.6 -11.8521
227 3 3.2 22.4 0 -11.4266
228 1 4.8 24 1.6 -11.8533
229 2 6.4 22.4 0 -9.88385
230 1 8 24 1.6 -11.8793
231 3 9.6 22.4 0 -11.4208
232 1 11.2 24 1.6 -11.9275
233 3 12.8 22.4 0 -11.4675
234 1 14.4 24 1.6 -11.9618
235 3 16 22.4 0 -11.48
236 3 17.6 24 1.6 -11.5083
237 1 19.2 22.4 0 -11.8412
238 2 20.8 24 1.6 -9.98017
239 3 22.4 22.4 0 -11.4511
240 2 24 24 1.6 -10.0073
241 1 25.6 22.4 0 -11.8352
242 3 27.2 24 1.6 -11.5071
243 1 28.8 22.4 0 -11.8346
244 3 30.4 24 1.6 -11.5157
245 2 32 22.4 0 -9.95213
246 3 33.6 24 1.6 -11.451
247 1 35.2 22.4 0 -11.8319
248 2 36.8 24 1.6 -9.89244
249 3 38.4 22.4 0 -11.3143
250 3 40 24 1.6 -11.4041
251 1 41.6 22.4 0 -11.8526
252 3 43.2 24 1.6 -11.4564
253 3 44.8 22.4 0 -11.3556
254 3 46.4 24 1.6 -11.5649
255 1 48 22.4 0 -11.9467
256 3 49.6 24 1.6 -11.554
257 2 0 25.6 0 -9.9843
259 3 3.2 25.6 0 -11.466
261 3 6.4 25.6 0 -11.43
263 3 9.6 25.6 0 -11.4945
265 3 12.8 25.6 0 -11.4669
267 3 16 25.6 0 -11.6228
269 3 19.2 25.6 0 -11.5658
271 2 22.4 25.6 0 -10.0032
273 2 25.6 25.6 0 -9.89668
275 1 28.8 25.6 0 -11.9285
277 3 32 25.6 0 -11.4612
279 1 35.2 25.6 0 -11.9403
281 2 38.4 25.6 0 -9.84752
283 2 41.6 25.6 0 -9.98037
285 3 44.8 25.6 0 -11.4999
287 2 48 25.6 0 -9.93213
258 1 1.6 27.2 1.6 -11.8506
289 2 0 28.8 0 -9.90631
260 2 4.8 27.2 1.6 -9.9478
291 2 3.2 28.8 0 -9.98528
262 2 8 27.2 1.6 -9.93751
293 1 6.4 28.8 0 -11.9493
264 1 11.2 27.2 1.6 -11.9048
295 3 9.6 28.8 0 -11.4503
266 2 14.4 27.2 1.6 -9.94964
297 3 12.8 28.8 0 -11.4733
268 3 17.6 27.2 1.6 -11.5888
299 2 16 28.8 0 -9.96391
270 2 20.8 27.2 1.6 -10.0314
301 2 19.2 28.8 0 -9.99351
272 3 24 27.2 1.6 -11.5172
303 1 22.4 28.8 0 -11.8437
305 1 25.6 28.8 0 -11.8666
274 2 27.2 27.2 1.6 -10.011
307 1 28.8 28.8 0 -11.8896
276 3 30.4 27.2 1.6 -11.5858
309 2 32 28.8 0 -9.88405
278 3 33.6 27.2 1.6 -11.596
311 1 35.2 28.8 0 -11.9726
280 3 36.8 27.2 1.6 -11.4625
313 1 38.4 28.8 0 -11.9224
282 3 40 27.2 1.6 -11.5902
315 3 41.6 28.8 0 -11.3868
284 3 43.2 27.2 1.6 -11.5781
317 1 44.8 28.8 0 -11.8769
286 3 46.4 27.2 1.6 -11.5075
319 1 48 28.8 0 -11.9073
288 3 49.6 27.2 1.6 -11.4954
290 3 1.6 30.4 1.6 -11.522
321 1 0 32 0 -11.8809
292 3 4.8 30.4 1.6 -11.5288
323 2 3.2 32 0 -9.9671
294 2 8 30.4 1.6 -9.97305
325 2 6.4 32 0 -9.95085
296 1 11.2 30.4 1.6 -11.9527
327 3 9.6 32 0 -11.5844
298 2 14.4 30.4 1.6 -9.95646
329 2 12.8 32 0 -10.0235
300 2 17.6 30.4 1.6 -10.0148
331 2 16 32 0 -9.93669
302 3 20.8 30.4 1.6 -11.5272
333 2 19.2 32 0 -9.99157
304 3 24 30.4 1.6 -11.5176
335 1 22.4 32 0 -11.8884
337 1 25.6 32 0 -11.8767
306 3 27.2 30.4 1.6 -11.5212
339 1 28.8 32 0 -11.922
308 3 30.4 30.4 1.6 -11.5597
341 1 32 32 0 -11.9142
310 3 33.6 30.4 1.6 -11.5906
343 3 35.2 32 0 -11.4634
312 3 36.8 30.4 1.6 -11.5102
345 3 38.4 32 0 -11.4965
314 3 40 30.4 1.6 -11.5843
347 3 41.6 32 0 -11.5299
316 3 43.2 30.4 1.6 -11.4878
349 3 44.8 32 0 -11.4675
318 3 46.4 30.4 1.6 -11.5375
351 2 48 32 0 -9.95634
320 2 49.6 30.4 1.6 -9.96
322 3 1.6 33.6 1.6 -11.4855
353 3 0 35.2 0 -11.3497
324 3 4.8 33.6 1.6 -11.5252
355 1 3.2 35.2 0 -11.9255
326 3 8 33.6 1.6 -11.5102
357 1 6.4 35.2 0 -11.8508
328 3 11.2 33.6 1.6 -11.5402
359 3 9.6 35.2 0 -11.5062
330 3 14.4 33.6 1.6 -11.4897
361 1 12.8 35.2 0 -11.9502
332 3 17.6 33.6 1.6 -11.5059
363 3 16 35.2 0 -11.4855
334 3 20.8 33.6 1.6 -11.5082
365 3 19.2 35.2 0 -11.5173
336 3 24 33.6 1.6 -11.3859
367 1 22.4 35.2 0 -11.8799
369 1 25.6 35.2 0 -11.9356
338 3 27.2 33.6 1.6 -11.4689
371 3 28.8 35.2 0 -11.4402
340 3 30.4 33.6 1.6 -11.5134
373 1 32 35.2 0 -11.9471
342 2 33.6 33.6 1.6 -10.0154
375 3 35.2 35.2 0 -11.4613
344 1 36.8 33.6 1.6 -11.9474
377 2 38.4 35.2 0 -9.95511
346 2 40 33.6 1.6 -9.99554
379 2 41.6 35.2 0 -9.89613
348 3 43.2 33.6 1.6 -11.4779
381 1 44.8 35.2 0 -11.9215
350 3 46.4 33.6 1.6 -11.5867
383 3 48 35.2 0 -11.483
352 2 49.6 33.6 1.6 -10.011
354 2 1.6 36.8 1.6 -9.96883
385 1 0 38.4 0 -11.8262
356 3 4.8 36.8 1.6 -11.4358
387 1 3.2 38.4 0 -11.9223
358 3 8 36.8 1.6 -11.5133
389 1 6.4 38.4 0 -11.9028
360 2 11.2 36.8 1.6 -10.0007
391 3 9.6 38.4 0 -11.47
362 3 14.4 36.8 1.6 -11.4027
393 2 12.8 38.4 0 -9.94561
364 3 17.6 36.8 1.6 -11.5729
395 3 16 38.4 0 -11.5449
366 2 20.8 36.8 1.6 -9.96923
397 2 19.2 38.4 0 -9.98948
368 3 24 36.8 1.6 -11.4361
399 1 22.4 38.4 0 -11.8893
401 3 25.6 38.4 0 -11.5442
370 3 27.2 36.8 1.6 -11.475
403 3 28.8 38.4 0 -11.5679
372 3 30.4 36.8 1.6 -11.5889
405 3 32 38.4 0 -11.5558
374 3 33.6 36.8 1.6 -11.4714
407 3 35.2 38.4 0 -11.4672
376 1 36.8 36.8 1.6 -11.8635
409 3 38.4 38.4 0 -11.3914
378 2 40 36.8 1.6 -9.92424
411 1 41.6 38.4 0 -11.864
380 3 43.2 36.8 1.6 -11.3271
413 2 44.8 38.4 0 -9.89562
382 3 46.4 36.8 1.6 -11.4291
415 1 48 38.4 0 -11.7998
384 2 49.6 36.8 1.6 -9.94423
386 3 1.6 40 1.6 -11.4293
417 1 0 41.6 0 -11.8788
388 3 4.8 40 1.6 -11.5668
419 3 3.2 41.6 0 -11.4865
390 3 8 40 1.6 -11.5025
421 2 6.4 41.6 0 -9.97789
392 3 11.2 40 1.6 -11.5116
423 2 9.6 41.6 0 -10.0227
394 2 14.4 40 1.6 -10.0172
425 3 12.8 41.6 0 -11.5173
396 3 17.6 40 1.6 -11.4025
427 3 16 41.6 0 -11.5242
398 2 20.8 40 1.6 -10.0119
429 2 19.2 41.6 0 -9.94503
400 3 24 40 1.6 -11.5144
431 3 22.4 41.6 0 -11.3908
433 3 25.6 41.6 0 -11.4849
402 2 27.2 40 1.6 -9.98004
435 1 28.8 41.6 0 -11.9322
404 3 30.4 40 1.6 -11.5314
437 3 32 41.6 0 -11.4617
406 1 33.6 40 1.6 -11.9289
439 2 35.2 41.6 0 -9.94088
408 3 36.8 40 1.6 -11.3003
441 3 38.4 41.6 0 -11.4238
410 2 40 40 1.6 -9.94786
443 2 41.6 41.6 0 -9.97432
412 2 43.2 40 1.6 -9.9627
445 3 44.8 41.6 0 -11.5289
414 2 46.4 40 1.6 -9.98525
447 1 48 41.6 0 -11.9129
416 3 49.6 40 1.6 -11.234
418 3 1.6 43.2 1.6 -11.4121
449 1 0 44.8 0 -11.8585
420 3 4.8 43.2 1.6 -11.625
451 1 3.2 44.8 0 -11.8783
422 2 8 43.2 1.6 -10.0307
453 3 6.4 44.8 0 -11.4931
424 2 11.2 43.2 1.6 -9.97751
455 3 9.6 44.8 0 -11.5271
426 3 14.4 43.2 1.6 -11.5025
457 2 12.8 44.8 0 -10.0099
428 2 17.6 43.2 1.6 -9.94717
459 3 16 44.8 0 -11.4474
430 2 20.8 43.2 1.6 -9.91214
461 2 19.2 44.8 0 -9.92767
432 1 24 43.2 1.6 -11.819
463 2 22.4 44.8 0 -9.93548
465 3 25.6 44.8 0 -11.4955
434 1 27.2 43.2 1.6 -11.8726
467 3 28.8 44.8 0 -11.4365
436 3 30.4 43.2 1.6 -11.5385
469 3 32 44.8 0 -11.6119
438 2 33.6 43.2 1.6 -9.93794
471 3 35.2 44.8 0 -11.4983
440 1 36.8 43.2 1.6 -11.9136
473 2 38.4 44.8 0 -9.96022
442 1 40 43.2 1.6 -11.9043
475 3 41.6 44.8 0 -11.4729
444 1 43.2 43.2 1.6 -11.9138
477 3 44.8 44.8 0 -11.4664
446 3 46.4 43.2 1.6 -11.4806
479 3 48 44.8 0 -11.3839
448 2 49.6 43.2 1.6 -9.96306
450 1 1.6 46.4 1.6 -11.874
481 3 0 48 0 -11.4656
452 3 4.8 46.4 1.6 -11.5025
483 3 3.2 48 0 -11.558
454 3 8 46.4 1.6 -11.5572
485 3 6.4 48 0 -11.549
456 2 11.2 46.4 1.6 -9.95307
487 1 9.6 48 0 -11.8995
458 1 14.4 46.4 1.6 -11.8673
489 2 12.8 48 0 -9.91838
460 1 17.6 46.4 1.6 -11.8813
491 3 16 48 0 -11.3883
462 3 20.8 46.4 1.6 -11.4894
493 3 19.2 48 0 -11.4797
464 3 24 46.4 1.6 -11.4346
495 2 22.4 48 0 -9.97893
497 1 25.6 48 0 -11.8663
466 3 27.2 46.4 1.6 -11.4678
499 1 28.8 48 0 -11.8394
468 3 30.4 46.4 1.6 -11.5394
501 2 32 48 0 -9.99356
470 3 33.6 46.4 1.6 -11.4956
503 3 35.2 48 0 -11.496
472 1 36.8 46.4 1.6 -11.9276
505 3 38.4 48 0 -11.5365
474 2 40 46.4 1.6 -9.98406
507 2 41.6 48 0 -9.9672
476 3 43.2 46.4 1.6 -11.3112
509 1 44.8 48 0 -11.8641
478 3 46.4 46.4 1.6 -11.4438
511 1 48 48 0 -11.8798
480 3 49.6 46.4 1.6 -11.3954
482 3 1.6 49.6 1.6 -11.5365
484 3 4.8 49.6 1.6 -11.6067
486 3 8 49.6 1.6 -11.4729
488 2 11.2 49.6 1.6 -9.92461
490 1 14.4 49.6 1.6 -11.9206
492 2 17.6 49.6 1.6 -9.92997
494 3 20.8 49.6 1.6 -11.5442
496 3 24 49.6 1.6 -11.538
498 3 27.2 49.6 1.6 -11.401
500 2 30.4 49.6 1.6 -9.97441
502 1 33.6 49.6 1.6 -11.8996
504 1 36.8 49.6 1.6 -11.9265
506 3 40 49.6 1.6 -11.4815
508 3 43.2 49.6 1.6 -11.4738
510 3 46.4 49.6 1.6 -11.4871
512 1 49.6 49.6 1.6 -11.9228
513 3 0 0 3.2 -11.4523
514 3 1.6 1.6 4.8 -11.3954
515 1 3.2 0 3.2 -11.9815
516 3 4.8 1.6 4.8 -11.4892
517 1 6.4 0 3.2 -11.9163
518 3 8 1.6 4.8 -11.5951
519 2 9.6 0 3.2 -9.94765
520 3 11.2 1.6 4.8 -11.5567
521 3 12.8 0 3.2 -11.5528
522 1 14.4 1.6 4.8 -11.9517
523 2 16 0 3.2 -10.0066
524 2 17.6 1.6 4.8 -9.98507
525 1 19.2 0 3.2 -11.9226
526 3 20.8 1.6 4.8 -11.5097
527 3 22.4 0 3.2 -11.4866
528 3 24 1.6 4.8 -11.5171
529 1 25.6 0 3.2 -11.9764
530 3 27.2 1.6 4.8 -11.489
531 2 28.8 0 3.2 -9.96646
532 3 30.4 1.6 4.8 -11.5789
533 2 32 0 3.2 -9.96539
534 3 33.6 1.6 4.8 -11.6232
535 3 35.2 0 3.2 -11.5453
536 3 36.8 1.6 4.8 -11.566
537 3 38.4 0 3.2 -11.4846
538 3 40 1.6 4.8 -11.4123
539 3 41.6 0 3.2 -11.4496
540 2 43.2 1.6 4.8 -9.92526
541 3 44.8 0 3.2 -11.4283
542 3 46.4 1.6 4.8 -11.4097
543 3 48 0 3.2 -11.5135
544 3 49.6 1.6 4.8 -11.38
545 1 0 3.2 3.2 -11.8452
546 2 1.6 4.8 4.8 -9.8991
547 1 3.2 3.2 3.2 -11.8737
548 3 4.8 4.8 4.8 -11.5046
549 1 6.4 3.2 3.2 -11.9277
550 3 8 4.8 4.8 -11.5145
551 3 9.6 3.2 3.2 -11.5076
552 3 11.2 4.8 4.8 -11.5332
553 3 12.8 3.2 3.2 -11.5369
554 1 14.4 4.8 4.8 -11.9215
555 3 16 3.2 3.2 -11.4924
556 3 17.6 4.8 4.8 -11.5567
557 1 19.2 3.2 3.2 -11.9199
558 2 20.8 4.8 4.8 -10.0181
559 2 22.4 3.2 3.2 -9.9896
560 3 24 4.8 4.8 -11.5729
561 1 25.6 3.2 3.2 -11.8463
562 3 27.2 4.8 4.8 -11.4365
563 1 28.8 3.2 3.2 -11.9027
564 3 30.4 4.8 4.8 -11.5128
565 3 32 3.2 3.2 -11.4742
566 3 33.6 4.8 4.8 -11.6063
567 3 35.2 3.2 3.2 -11.6098
568 3 36.8 4.8 4.8 -11.5441
569 2 38.4 3.2 3.2 -9.9783
570 2 40 4.8 4.8 -10.0013
571 3 41.6 3.2 3.2 -11.4318
572 3 43.2 4.8 4.8 -11.4522
573 1 44.8 3.2 3.2 -11.822
574 2 46.4 4.8 4.8 -9.95059
575 1 48 3.2 3.2 -11.8633
576 3 49.6 4.8 4.8 -11.3516
577 1 0 6.4 3.2 -11.91
578 3 1.6 8 4.8 -11.5145
579 2 3.2 6.4 3.2 -9.87801
580 3 4.8 8 4.8 -11.574
581 1 6.4 6.4 3.2 -11.8447
582 2 8 8 4.8 -10.003
583 2 9.6 6.4 3.2 -9.96624
584 3 11.2 8 4.8 -11.4317
585 2 12.8 6.4 3.2 -10.004
586 1 14.4 8 4.8 -11.948
587 3 16 6.4 3.2 -11.4928
588 3 17.6 8 4.8 -11.5086
589 2 19.2 6.4 3.2 -9.99876
590 1 20.8 8 4.8 -11.9441
591 3 22.4 6.4 3.2 -11.5495
592 3 24 8 4.8 -11.5672
593 2 25.6 6.4 3.2 -10.0256
594 3 27.2 8 4.8 -11.5771
595 3 28.8 6.4 3.2 -11.3538
596 2 30.4 8 4.8 -9.9264
597 1 32 6.4 3.2 -11.9226
598 3 33.6 8 4.8 -11.4569
599 3 35.2 6.4 3.2 -11.5246
600 3 36.8 8 4.8 -11.5207
601 3 38.4 6.4 3.2 -11.553
602 1 40 8 4.8 -11.9558
603 2 41.6 6.4 3.2 -10.0282
604 2 43.2 8 4.8 -9.96373
605 2 44.8 6.4 3.2 -9.95635
606 1 46.4 8 4.8 -11.8521
607 2 48 6.4 3.2 -9.92645
608 2 49.6 8 4.8 -9.94686
609 2 0 9.6 3.2 -9.94005
610 3 1.6 11.2 4.8 -11.5687
611 1 3.2 9.6 3.2 -11.9867
612 3 4.8 11.2 4.8 -11.5785
613 2 6.4 9.6 3.2 -9.94318
614 3 8 11.2 4.8 -11.3431
615 2 9.6 9.6 3.2 -9.96981
616 1 11.2 11.2 4.8 -11.8325
617 3 12.8 9.6 3.2 -11.4856
618 3 14.4 11.2 4.8 -11.4607
619 3 16 9.6 3.2 -11.5993
620 3 17.6 11.2 4.8 -11.5605
621 2 19.2 9.6 3.2 -9.98475
622 2 20.8 11.2 4.8 -9.97864
623 3 22.4 9.6 3.2 -11.559
624 3 24 11.2 4.8 -11.6241
625 3 25.6 9.6 3.2 -11.499
626 3 27.2 11.2 4.8 -11.5148
627 1 28.8 9.6 3.2 -11.894
628 2 30.4 11.2 4.8 -9.94758
629 1 32 9.6 3.2 -11.8463
630 3 33.6 11.2 4.8 -11.5595
631 2 35.2 9.6 3.2 -9.92453
632 3 36.8 11.2 4.8 -11.5193
633 3 38.4 9.6 3.2 -11.5246
634 2 40 11.2 4.8 -9.88031
635 3 41.6 9.6 3.2 -11.4949
636 3 43.2 11.2 4.8 -11.4376
637 2 44.8 9.6 3.2 -9.93641
638 1 46.4 11.2 4.8 -11.8038
639 2 48 9.6 3.2 -9.85084
640 3 49.6 11.2 4.8 -11.526
641 3 0 12.8 3.2 -11.5419
642 1 1.6 14.4 4.8 -11.9798
643 3 3.2 12.8 3.2 -11.5566
644 3 4.8 14.4 4.8 -11.5573
645 2 6.4 12.8 3.2 -10.0072
646 1 8 14.4 4.8 -11.8707
647 2 9.6 12.8 3.2 -9.81969
648 2 11.2 14.4 4.8 -9.82115
649 2 12.8 12.8 3.2 -9.92756
650 2 14.4 14.4 4.8 -9.98987
651 3 16 12.8 3.2 -11.495
652 3 17.6 14.4 4.8 -11.5166
653 1 19.2 12.8 3.2 -11.9094
654 3 20.8 14.4 4.8 -11.5
655 3 22.4 12.8 3.2 -11.5333
656 3 24 14.4 4.8 -11.5062
657 1 25.6 12.8 3.2 -11.9254
658 3 27.2 14.4 4.8 -11.4605
659 3 28.8 12.8 3.2 -11.3189
660 3 30.4 14.4 4.8 -11.489
661 2 32 12.8 3.2 -9.94697
662 2 33.6 14.4 4.8 -9.95187
663 1 35.2 12.8 3.2 -11.8315
664 1 36.8 14.4 4.8 -11.7182
665 1 38.4 12.8 3.2 -11.775
666 1 40 14.4 4.8 -11.7924
667 3 41.6 12.8 3.2 -11.4958
668 3 43.2 14.4 4.8 -11.5102
669 2 44.8 12.8 3.2 -9.96213
670 2 46.4 14.4 4.8 -9.98377
671 1 48 12.8 3.2 -11.8631
672 3 49.6 14.4 4.8 -11.5449
673 3 0 16 3.2 -11.4983
674 1 1.6 17.6 4.8 -11.9121
675 3 3.2 16 3.2 -11.4644
676 3 4.8 17.6 4.8 -11.5931
677 3 6.4 16 3.2 -11.5619
678 2 8 17.6 4.8 -9.93719
679 3 9.6 16 3.2 -11.4001
680 1 11.2 17.6 4.8 -11.8582
681 2 12.8 16 3.2 -9.91232
682 1 14.4 17.6 4.8 -11.8255
683 2 16 16 3.2 -10.0563
684 2 17.6 17.6 4.8 -10.0056
685 3 19.2 16 3.2 -11.4613
686 3 20.8 17.6 4.8 -11.4885
687 3 22.4 16 3.2 -11.5422
688 3 24 17.6 4.8 -11.5482
689 2 25.6 16 3.2 -9.91622
690 3 27.2 17.6 4.8 -11.5006
691 1 28.8 16 3.2 -11.8538
692 3 30.4 17.6 4.8 -11.5186
693 1 32 16 3.2 -11.9078
694 3 33.6 17.6 4.8 -11.5165
695 1 35.2 16 3.2 -11.7906
696 2 36.8 17.6 4.8 -9.99353
697 3 38.4 16 3.2 -11.3979
698 3 40 17.6 4.8 -11.4742
699 3 41.6 16 3.2 -11.5927
700 3 43.2 17.6 4.8 -11.6109
701 3 44.8 16 3.2 -11.5535
702 2 46.4 17.6 4.8 -9.97484
703 2 48 16 3.2 -9.96227
704 3 49.6 17.6 4.8 -11.5085
705 2 0 19.2 3.2 -9.97487
706 1 1.6 20.8 4.8 -11.9363
707 3 3.2 19.2 3.2 -11.4238
708 3 4.8 20.8 4.8 -11.4999
709 3 6.4 19.2 3.2 -11.518
710 3 8 20.8 4.8 -11.5564
711 3 9.6 19.2 3.2 -11.4697
712 2 11.2 20.8 4.8 -10.0069
713 1 12.8 19.2 3.2 -11.8096
714 2 14.4 20.8 4.8 -9.92084
715 3 16 19.2 3.2 -11.4576
716 2 17.6 20.8 4.8 -9.98772
717 3 19.2 19.2 3.2 -11.4338
718 2 20.8 20.8 4.8 -9.96816
719 2 22.4 19.2 3.2 -10.0467
720 3 24 20.8 4.8 -11.5258
721 2 25.6 19.2 3.2 -9.97957
722 2 27.2 20.8 4.8 -10.0348
723 1 28.8 19.2 3.2 -11.9145
724 3 30.4 20.8 4.8 -11.4686
725 2 32 19.2 3.2 -9.90178
726 3 33.6 20.8 4.8 -11.5452
727 1 35.2 19.2 3.2 -11.9081
728 3 36.8 20.8 4.8 -11.4707
729 2 38.4 19.2 3.2 -9.97378
730 3 40 20.8 4.8 -11.5748
731 3 41.6 19.2 3.2 -11.5544
732 3 43.2 20.8 4.8 -11.5076
733 3 44.8 19.2 3.2 -11.5089
734 1 46.4 20.8 4.8 -11.8476
735 2 48 19.2 3.2 -9.95586
736 3 49.6 20.8 4.8 -11.4966
737 3 0 22.4 3.2 -11.52
738 2 1.6 24 4.8 -9.88121
739 3 3.2 22.4 3.2 -11.4157
740 2 4.8 24 4.8 -9.98818
741 3 6.4 22.4 3.2 -11.4682
742 3 8 24 4.8 -11.5664
743 3 9.6 22.4 3.2 -11.568
744 3 11.2 24 4.8 -11.5301
745 2 12.8 22.4 3.2 -9.99231
746 3 14.4 24 4.8 -11.4961
747 3 16 22.4 3.2 -11.5599
748 3 17.6 24 4.8 -11.5816
749 2 19.2 22.4 3.2 -9.97972
750 1 20.8 24 4.8 -11.8498
751 2 22.4 22.4 3.2 -10.0183
752 3 24 24 4.8 -11.5531
753 3 25.6 22.4 3.2 -11.5766
754 3 27.2 24 4.8 -11.4997
755 3 28.8 22.4 3.2 -11.4628
756 1 30.4 24 4.8 -11.858
757 1 32 22.4 3.2 -11.9055
758 2 33.6 24 4.8 -9.91358
759 1 35.2 22.4 3.2 -11.7839
760 2 36.8 24 4.8 -9.92397
761 1 38.4 22.4 3.2 -11.8611
762 3 40 24 4.8 -11.5097
763 1 41.6 22.4 3.2 -11.9489
764 3 43.2 24 4.8 -11.4902
765 1 44.8 22.4 3.2 -11.8909
766 2 46.4 24 4.8 -9.95862
767 3 48 22.4 3.2 -11.4948
768 2 49.6 24 4.8 -10.0261
769 2 0 25.6 3.2 -9.96836
771 2 3.2 25.6 3.2 -9.93017
773 2 6.4 25.6 3.2 -10.0058
775 3 9.6 25.6 3.2 -11.5392
777 3 12.8 25.6 3.2 -11.4632
779 3 16 25.6 3.2 -11.6035
781 3 19.2 25.6 3.2 -11.5514
783 3 22.4 25.6 3.2 -11.5617
785 3 25.6 25.6 3.2 -11.5896
787 3 28.8 25.6 3.2 -11.5066
789 3 32 25.6 3.2 -11.5259
791 2 35.2 25.6 3.2 -9.86
793 1 38.4 25.6 3.2 -11.9233
795 3 41.6 25.6 3.2 -11.4612
797 1 44.8 25.6 3.2 -11.9251
799 3 48 25.6 3.2 -11.5294
770 2 1.6 27.2 4.8 -9.93396
801 2 0 28.8 3.2 -10.0164
772 2 4.8 27.2 4.8 -9.97426
803 3 3.2 28.8 3.2 -11.528
774 3 8 27.2 4.8 -11.4651
805 3 6.4 28.8 3.2 -11.4624
776 3 11.2 27.2 4.8 -11.5093
807 3 9.6 28.8 3.2 -11.5217
778 3 14.4 27.2 4.8 -11.5425
809 2 12.8 28.8 3.2 -10.003
780 3 17.6 27.2 4.8 -11.5258
811 1 16 28.8 3.2 -11.8883
782 2 20.8 27.2 4.8 -9.99109
813 3 19.2 28.8 3.2 -11.4959
784 3 24 27.2 4.8 -11.6232
815 3 22.4 28.8 3.2 -11.6222
817 3 25.6 28.8 3.2 -11.6224
786 2 27.2 27.2 4.8 -10.005
819 3 28.8 28.8 3.2 -11.546
788 2 30.4 27.2 4.8 -9.95927
821 3 32 28.8 3.2 -11.6322
790 2 33.6 27.2 4.8 -9.97934
823 3 35.2 28.8 3.2 -11.53
792 2 36.8 27.2 4.8 -9.95431
825 3 38.4 28.8 3.2 -11.485
794 3 40 27.2 4.8 -11.5951
827 2 41.6 28.8 3.2 -9.93409
796 3 43.2 27.2 4.8 -11.4481
829 1 44.8 28.8 3.2 -11.8893
798 2 46.4 27.2 4.8 -9.97935
831 3 48 28.8 3.2 -11.4544
800 2 49.6 27.2 4.8 -9.974
802 3 1.6 30.4 4.8 -11.4202
833 2 0 32 3.2 -9.97329
804 1 4.8 30.4 4.8 -11.8802
835 3 3.2 32 3.2 -11.531
806 1 8 30.4 4.8 -11.8931
837 3 6.4 32 3.2 -11.5071
808 3 11.2 30.4 4.8 -11.5207
839 3 9.6 32 3.2 -11.5634
810 3 14.4 30.4 4.8 -11.5401
841 3 12.8 32 3.2 -11.4842
812 3 17.6 30.4 4.8 -11.4459
843 1 16 32 3.2 -11.9136
814 3 20.8 30.4 4.8 -11.521
845 2 19.2 32 3.2 -9.97372
816 3 24 30.4 4.8 -11.5996
847 3 22.4 32 3.2 -11.5038
849 3 25.6 32 3.2 -11.5092
818 3 27.2 30.4 4.8 -11.5857
851 3 28.8 32 3.2 -11.5004
820 3 30.4 30.4 4.8 -11.5365
853 3 32 32 3.2 -11.5341
822 2 33.6 30.4 4.8 -10.0184
855 3 35.2 32 3.2 -11.5988
824 1 36.8 30.4 4.8 -11.9414
857 3 38.4 32 3.2 -11.5694
826 3 40 30.4 4.8 -11.4392
859 1 41.6 32 3.2 -11.9253
828 2 43.2 30.4 4.8 -9.93381
861 3 44.8 32 3.2 -11.4882
830 3 46.4 30.4 4.8 -11.4872
863 3 48 32 3.2 -11.5866
832 1 49.6 30.4 4.8 -11.9561
834 1 1.6 33.6 4.8 -11.8961
865 2 0 35.2 3.2 -10.0075
836 1 4.8 33.6 4.8 -11.8692
867 3 3.2 35.2 3.2 -11.5089
838 1 8 33.6 4.8 -11.9289
869 3 6.4 35.2 3.2 -11.4767
840 3 11.2 33.6 4.8 -11.5498
871 3 9.6 35.2 3.2 -11.5425
842 3 14.4 33.6 4.8 -11.5269
873 1 12.8 35.2 3.2 -11.884
844 3 17.6 33.6 4.8 -11.5147
875 1 16 35.2 3.2 -11.9495
846 1 20.8 33.6 4.8 -11.7909
877 3 19.2 35.2 3.2 -11.4889
848 1 24 33.6 4.8 -11.8421
879 2 22.4 35.2 3.2 -9.89242
881 1 25.6 35.2 3.2 -11.8255
850 2 27.2 33.6 4.8 -9.96875
883 1 28.8 35.2 3.2 -11.9065
852 3 30.4 33.6 4.8 -11.4895
885 2 32 35.2 3.2 -9.93583
854 3 33.6 33.6 4.8 -11.5466
887 2 35.2 35.2 3.2 -10.0119
856 3 36.8 33.6 4.8 -11.4272
889 3 38.4 35.2 3.2 -11.4081
858 3 40 33.6 4.8 -11.4949
891 1 41.6 35.2 3.2 -11.8574
860 3 43.2 33.6 4.8 -11.4102
893 1 44.8 35.2 3.2 -11.9439
862 2 46.4 33.6 4.8 -10.0675
895 3 48 35.2 3.2 -11.508
864 2 49.6 33.6 4.8 -9.95742
866 2 1.6 36.8 4.8 -9.96514
897 1 0 38.4 3.2 -11.8321
868 2 4.8 36.8 4.8 -9.94063
899 3 3.2 38.4 3.2 -11.4438
870 2 8 36.8 4.8 -10.0074
901 1 6.4 38.4 3.2 -11.9261
872 3 11.2 36.8 4.8 -11.52
903 2 9.6 38.4 3.2 -9.9495
874 3 14.4 36.8 4.8 -11.4313
905 1 12.8 38.4 3.2 -11.9042
876 3 17.6 36.8 4.8 -11.4917
907 1 16 38.4 3.2 -11.8483
878 1 20.8 36.8 4.8 -11.9251
909 2 19.2 38.4 3.2 -9.98527
880 2 24 36.8 4.8 -9.9487
911 2 22.4 38.4 3.2 -9.95535
913 2 25.6 38.4 3.2 -9.95636
882 2 27.2 36.8 4.8 -9.91024
915 1 28.8 38.4 3.2 -11.9277
884 3 30.4 36.8 4.8 -11.5011
917 3 32 38.4 3.2 -11.4889
886 2 33.6 36.8 4.8 -9.98325
919 3 35.2 38.4 3.2 -11.4155
888 1 36.8 36.8 4.8 -11.8893
921 2 38.4 38.4 3.2 -9.98401
890 3 40 36.8 4.8 -11.399
923 1 41.6 38.4 3.2 -11.8515
892 3 43.2 36.8 4.8 -11.4425
925 2 44.8 38.4 3.2 -9.92955
894 3 46.4 36.8 4.8 -11.5212
927 1 48 38.4 3.2 -11.8925
896 3 49.6 36.8 4.8 -11.4918
898 2 1.6 40 4.8 -9.97517
929 1 0 41.6 3.2 -11.8912
900 2 4.8 40 4.8 -9.97116
931 3 3.2 41.6 3.2 -11.6128
902 2 8 40 4.8 -9.98711
933 3 6.4 41.6 3.2 -11.4646
904 3 11.2 40 4.8 -11.4383
935 1 9.6 41.6 3.2 -11.8119
906 3 14.4 40 4.8 -11.4062
937 2 12.8 41.6 3.2 -9.91422
908 2 17.6 40 4.8 -9.9893
939 1 16 41.6 3.2 -11.9111
910 3 20.8 40 4.8 -11.514
941 2 19.2 41.6 3.2 -9.97649
912 3 24 40 4.8 -11.537
943 2 22.4 41.6 3.2 -9.91352
945 2 25.6 41.6 3.2 -10.0023
914 2 27.2 40 4.8 -10.0359
947 2 28.8 41.6 3.2 -9.91442
916 3 30.4 40 4.8 -11.5148
949 2 32 41.6 3.2 -10.0145
918 1 33.6 40 4.8 -11.8986
951 3 35.2 41.6 3.2 -11.4862
920 1 36.8 40 4.8 -11.9013
953 3 38.4 41.6 3.2 -11.494
922 3 40 40 4.8 -11.4072
955 3 41.6 41.6 3.2 -11.5217
924 3 43.2 40 4.8 -11.5674
957 3 44.8 41.6 3.2 -11.4971
926 3 46.4 40 4.8 -11.5086
959 3 48 41.6 3.2 -11.3313
928 3 49.6 40 4.8 -11.3655
930 3 1.6 43.2 4.8 -11.512
961 2 0 44.8 3.2 -9.92309
932 2 4.8 43.2 4.8 -10.0107
963 3 3.2 44.8 3.2 -11.5786
934 2 8 43.2 4.8 -9.87836
965 3 6.4 44.8 3.2 -11.612
936 1 11.2 43.2 4.8 -11.8108
967 3 9.6 44.8 3.2 -11.4908
938 3 14.4 43.2 4.8 -11.392
969 3 12.8 44.8 3.2 -11.4964
940 3 17.6 43.2 4.8 -11.4932
971 2 16 44.8 3.2 -9.93508
942 3 20.8 43.2 4.8 -11.4384
973 2 19.2 44.8 3.2 -9.92507
944 2 24 43.2 4.8 -9.93718
975 1 22.4 44.8 3.2 -11.833
977 3 25.6 44.8 3.2 -11.3895
946 3 27.2 43.2 4.8 -11.5149
979 2 28.8 44.8 3.2 -10.0311
948 3 30.4 43.2 4.8 -11.5014
981 2 32 44.8 3.2 -9.98583
950 3 33.6 43.2 4.8 -11.509
983 3 35.2 44.8 3.2 -11.5427
952 3 36.8 43.2 4.8 -11.4307
985 3 38.4 44.8 3.2 -11.4627
954 3 40 43.2 4.8 -11.5563
987 3 41.6 44.8 3.2 -11.4739
956 3 43.2 43.2 4.8 -11.5053
989 1 44.8 44.8 3.2 -11.8639
958 3 46.4 43.2 4.8 -11.4968
991 1 48 44.8 3.2 -11.9805
960 3 49.6 43.2 4.8 -11.5145
962 3 1.6 46.4 4.8 -11.6311
993 3 0 48 3.2 -11.6066
964 3 4.8 46.4 4.8 -11.5802
995 3 3.2 48 3.2 -11.5484
966 3 8 46.4 4.8 -11.4973
997 1 6.4 48 3.2 -11.9393
968 3 11.2 46.4 4.8 -11.3536
999 1 9.6 48 3.2 -11.8125
970 1 14.4 46.4 4.8 -11.9406
1001 3 12.8 48 3.2 -11.4135
972 2 17.6 46.4 4.8 -9.9168
1003 3 16 48 3.2 -11.4304
974 3 20.8 46.4 4.8 -11.362
1005 3 19.2 48 3.2 -11.42
976 3 24 46.4 4.8 -11.3305
1007 1 22.4 48 3.2 -11.9359
1009 1 25.6 48 3.2 -11.8912
978 2 27.2 46.4 4.8 -9.99857
1011 3 28.8 48 3.2 -11.3971
980 1 30.4 46.4 4.8 -11.7525
1013 2 32 48 3.2 -9.95506
982 3 33.6 46.4 4.8 -11.3876
1015 3 35.2 48 3.2 -11.4642
984 3 36.8 46.4 4.8 -11.426
1017 2 38.4 48 3.2 -9.96968
986 3 40 46.4 4.8 -11.513
1019 1 41.6 48 3.2 -11.9299
988 2 43.2 46.4 4.8 -9.99444
1021 1 44.8 48 3.2 -11.8855
990 3 46.4 46.4 4.8 -11.4578
1023 2 48 48 3.2 -9.88308
992 3 49.6 46.4 4.8 -11.5983
994 3 1.6 49.6 4.8 -11.6518
996 3 4.8 49.6 4.8 -11.5382
998 2 8 49.6 4.8 -9.92251
1000 1 11.2 49.6 4.8 -11.8715
1002 3 14.4 49.6 4.8 -11.3313
1004 3 17.6 49.6 4.8 -11.4941
1006 3 20.8 49.6 4.8 -11.466
1008 3 24 49.6 4.8 -11.4896
1010 3 27.2 49.6 4.8 -11.5201
1012 2 30.4 49.6 4.8 -9.94329
1014 2 33.6 49.6 4.8 -9.92922
1016 3 36.8 49.6 4.8 -11.4949
1018 3 40 49.6 4.8 -11.516
1020 2 43.2 49.6 4.8 -10.0038
1022 3 46.4 49.6 4.8 -11.5154
1024 3 49.6 49.6 4.8 -11.4897
1025 1 0 0 6.4 -11.9283
1026 3 1.6 1.6 8 -11.4049
1027 3 3.2 0 6.4 -11.4747
1028 3 4.8 1.6 8 -11.5457
1029 3 6.4 0 6.4 -11.4959
1030 3 8 1.6 8 -11.5059
1031 2 9.6 0 6.4 -9.98861
1032 3 11.2 1.6 8 -11.4966
1033 3 12.8 0 6.4 -11.5167
1034 1 14.4 1.6 8 -11.9804
1035 3 16 0 6.4 -11.465
1036 3 17.6 1.6 8 -11.5342
1037 1 19.2 0 6.4 -11.9171
1038 2 20.8 1.6 8 -9.943
1039 3 22.4 0 6.4 -11.4961
1040 1 24 1.6 8 -11.8431
1041 3 25.6 0 6.4 -11.4355
1042 2 27.2 1.6 8 -10.0208
1043 3 28.8 0 6.4 -11.5292
1044 3 30.4 1.6 8 -11.5558
1045 1 32 0 6.4 -11.9181
1046 3 33.6 1.6 8 -11.6072
1047 3 35.2 0 6.4 -11.4871
1048 3 36.8 1.6 8 -11.5231
1049 1 38.4 0 6.4 -11.9211
1050 2 40 1.6 8 -9.90891
1051 1 41.6 0 6.4 -11.7983
1052 1 43.2 1.6 8 -11.7845
1053 1 44.8 0 6.4 -11.8596
1054 3 46.4 1.6 8 -11.4474
1055 1 48 0 6.4 -11.8621
1056 2 49.6 1.6 8 -9.87659
1057 1 0 3.2 6.4 -11.7829
1058 2 1.6 4.8 8 -9.94439
1059 1 3.2 3.2 6.4 -11.8933
1060 3 4.8 4.8 8 -11.5152
1061 3 6.4 3.2 6.4 -11.5249
1062 1 8 4.8 8 -11.9486
1063 3 9.6 3.2 6.4 -11.5999
1064 1 11.2 4.8 8 -11.9224
1065 3 12.8 3.2 6.4 -11.5625
1066 3 14.4 4.8 8 -11.4266
1067 3 16 3.2 6.4 -11.5916
1068 3 17.6 4.8 8 -11.5771
1069 3 19.2 3.2 6.4 -11.5076
1070 2 20.8 4.8 8 -9.97316
1071 3 22.4 3.2 6.4 -11.5106
1072 2 24 4.8 8 -9.98908
1073 1 25.6 3.2 6.4 -11.8809
1074 3 27.2 4.8 8 -11.4739
1075 2 28.8 3.2 6.4 -9.94144
1076 3 30.4 4.8 8 -11.5233
1077 3 32 3.2 6.4 -11.5542
1078 3 33.6 4.8 8 -11.5663
1079 3 35.2 3.2 6.4 -11.5109
1080 3 36.8 4.8 8 -11.4414
1081 1 38.4 3.2 6.4 -11.8851
1082 2 40 4.8 8 -9.89636
1083 2 41.6 3.2 6.4 -9.92936
1084 1 43.2 4.8 8 -11.9378
1085 3 44.8 3.2 6.4 -11.363
1086 3 46.4 4.8 8 -11.5563
1087 1 48 3.2 6.4 -11.8593
1088 3 49.6 4.8 8 -11.3939
1089 2 0 6.4 6.4 -9.96022
1090 2 1.6 8 8 -9.94196
1091 3 3.2 6.4 6.4 -11.554
1092 2 4.8 8 8 -9.99131
1093 3 6.4 6.4 6.4 -11.5808
1094 2 8 8 8 -9.90489
1095 3 9.6 6.4 6.4 -11.5229
1096 1 11.2 8 8 -11.8681
1097 3 12.8 6.4 6.4 -11.4383
1098 1 14.4 8 8 -11.9139
1099 3 16 6.4 6.4 -11.589
1100 2 17.6 8 8 -9.98961
1101 3 19.2 6.4 6.4 -11.5541
1102 1 20.8 8 8 -11.9437
1103 3 22.4 6.4 6.4 -11.5797
1104 3 24 8 8 -11.5583