 # Bcc Mo oriented X=[100] Y=[010] Z=[001].
  
        8192  atoms
           4  atom types
 
      0.000000000000      51.200000000000  xlo xhi
      0.000000000000      51.200000000000  ylo yhi
      0.000000000000      51.200000000000  zlo zhi
 
 
 
Atoms # atomic

1 3 0.0 0.0 0.0
2 2 1.6 1.6 1.6
3 3 3.2 0.0 0.0
4 1 4.8 1.6 1.6
5 3 6.4 0.0 0.0
6 1 8.0 1.6 1.6
7 3 9.6 0.0 0.0
8 1 11.2 1.6 1.6
9 3 12.8 0.0 0.0
10 1 14.4 1.6 1.6
11 3 16.0 0.0 0.0
12 2 17.6 1.6 1.6
13 2 19.2 0.0 0.0
14 1 20.8 1.6 1.6
15 3 22.4 0.0 0.0
16 1 24.0 1.6 1.6
17 3 25.6 0.0 0.0
18 1 27.2 1.6 1.6
19 3 28.8 0.0 0.0
20 1 30.4 1.6 1.6
21 3 32.0 0.0 0.0
22 1 33.6 1.6 1.6
23 2 35.2 0.0 0.0
24 1 36.8 1.6 1.6
25 3 38.4 0.0 0.0
26 1 40.0 1.6 1.6
27 3 41.6 0.0 0.0
28 2 43.2 1.6 1.6
29 2 44.8 0.0 0.0
30 2 46.4 1.6 1.6
31 3 48.0 0.0 0.0
32 1 49.6 1.6 1.6
33 2 0.0 3.2 0.0
34 2 1.6 4.8 1.6
35 2 3.2 3.2 0.0
36 1 4.8 4.8 1.6
37 3 6.4 3.2 0.0
38 1 8.0 4.8 1.6
39 3 9.6 3.2 0.0
40 1 11.2 4.8 1.6
41 3 12.8 3.2 0.0
42 1 14.4 4.8 1.6
43 2 16.0 3.2 0.0
44 2 17.6 4.8 1.6
45 3 19.2 3.2 0.0
46 3 20.8 4.8 1.6
47 3 22.4 3.2 0.0
48 1 24.0 4.8 1.6
49 2 25.6 3.2 0.0
50 1 27.2 4.8 1.6
51 3 28.8 3.2 0.0
52 1 30.4 4.8 1.6
53 3 32.0 3.2 0.0
54 1 33.6 4.8 1.6
55 3 35.2 3.2 0.0
56 1 36.8 4.8 1.6
57 2 38.4 3.2 0.0
58 1 40.0 4.8 1.6
59 2 41.6 3.2 0.0
60 3 43.2 4.8 1.6
61 1 44.8 3.2 0.0
62 2 46.4 4.8 1.6
63 1 48.0 3.2 0.0
64 2 49.6 4.8 1.6
65 1 0.0 6.4 0.0
66 3 1.6 8.0 1.6
67 2 3.2 6.4 0.0
68 2 4.8 8.0 1.6
69 3 6.4 6.4 0.0
70 2 8.0 8.0 1.6
71 2 9.6 6.4 0.0
72 2 11.2 8.0 1.6
73 2 12.8 6.4 0.0
74 2 14.4 8.0 1.6
75 2 16.0 6.4 0.0
76 3 17.6 8.0 1.6
77 1 19.2 6.4 0.0
78 2 20.8 8.0 1.6
79 2 22.4 6.4 0.0
80 2 24.0 8.0 1.6
81 2 25.6 6.4 0.0
82 2 27.2 8.0 1.6
83 2 28.8 6.4 0.0
84 1 30.4 8.0 1.6
85 3 32.0 6.4 0.0
86 1 33.6 8.0 1.6
87 2 35.2 6.4 0.0
88 2 36.8 8.0 1.6
89 2 38.4 6.4 0.0
90 1 40.0 8.0 1.6
91 1 41.6 6.4 0.0
92 2 43.2 8.0 1.6
93 1 44.8 6.4 0.0
94 2 46.4 8.0 1.6
95 1 48.0 6.4 0.0
96 3 49.6 8.0 1.6
97 1 0.0 9.6 0.0
98 3 1.6 11.2 1.6
99 1 3.2 9.6 0.0
100 3 4.8 11.2 1.6
101 1 6.4 9.6 0.0
102 3 8.0 11.2 1.6
103 1 9.6 9.6 0.0
104 2 11.2 11.2 1.6
105 1 12.8 9.6 0.0
106 3 14.4 11.2 1.6
107 1 16.0 9.6 0.0
108 2 17.6 11.2 1.6
109 1 19.2 9.6 0.0
110 2 20.8 11.2 1.6
111 2 22.4 9.6 0.0
112 2 24.0 11.2 1.6
113 2 25.6 9.6 0.0
114 1 27.2 11.2 1.6
115 3 28.8 9.6 0.0
116 1 30.4 11.2 1.6
117 2 32.0 9.6 0.0
118 2 33.6 11.2 1.6
119 1 35.2 9.6 0.0
120 2 36.8 11.2 1.6
121 1 38.4 9.6 0.0
122 3 40.0 11.2 1.6
123 1 41.6 9.6 0.0
124 3 43.2 11.2 1.6
125 1 44.8 9.6 0.0
126 3 46.4 11.2 1.6
127 1 48.0 9.6 0.0
128 3 49.6 11.2 1.6
129 1 0.0 12.8 0.0
130 2 1.6 14.4 1.6
131 1 3.2 12.8 0.0
132 3 4.8 14.4 1.6
133 1 6.4 12.8 0.0
134 3 8.0 14.4 1.6
135 2 9.6 12.8 0.0
136 3 11.2 14.4 1.6
137 2 12.8 12.8 0.0
138 2 14.4 14.4 1.6
139 2 16.0 12.8 0.0
140 2 17.6 14.4 1.6
141 2 19.2 12.8 0.0
142 2 20.8 14.4 1.6
143 2 22.4 12.8 0.0
144 3 24.0 14.4 1.6
145 2 25.6 12.8 0.0
146 1 27.2 14.4 1.6
147 2 28.8 12.8 0.0
148 3 30.4 14.4 1.6
149 1 32.0 12.8 0.0
150 3 33.6 14.4 1.6
151 1 35.2 12.8 0.0
152 3 36.8 14.4 1.6
153 1 38.4 12.8 0.0
154 2 40.0 14.4 1.6
155 1 41.6 12.8 0.0
156 3 43.2 14.4 1.6
157 1 44.8 12.8 0.0
158 3 46.4 14.4 1.6
159 1 48.0 12.8 0.0
160 2 49.6 14.4 1.6
161 2 0.0 16.0 0.0
162 2 1.6 17.6 1.6
163 1 3.2 16.0 0.0
164 3 4.8 17.6 1.6
165 1 6.4 16.0 0.0
166 3 8.0 17.6 1.6
167 1 9.6 16.0 0.0
168 3 11.2 17.6 1.6
169 1 12.8 16.0 0.0
170 2 14.4 17.6 1.6
171 2 16.0 16.0 0.0
172 1 17.6 17.6 1.6
173 2 19.2 16.0 0.0
174 1 20.8 17.6 1.6
175 2 22.4 16.0 0.0
176 1 24.0 17.6 1.6
177 2 25.6 16.0 0.0
178 1 27.2 17.6 1.6
179 2 28.8 16.0 0.0
180 1 30.4 17.6 1.6
181 2 32.0 16.0 0.0
182 2 33.6 17.6 1.6
183 1 35.2 16.0 0.0
184 3 36.8 17.6 1.6
185 1 38.4 16.0 0.0
186 2 40.0 17.6 1.6
187 1 41.6 16.0 0.0
188 3 43.2 17.6 1.6
189 1 44.8 16.0 0.0
190 2 46.4 17.6 1.6
191 2 48.0 16.0 0.0
192 1 49.6 17.6 1.6
193 2 0.0 19.2 0.0
194 2 1.6 20.8 1.6
195 1 3.2 19.2 0.0
196 2 4.8 20.8 1.6
197 1 6.4 19.2 0.0
198 2 8.0 20.8 1.6
199 1 9.6 19.2 0.0
200 3 11.2 20.8 1.6
201 1 12.8 19.2 0.0
202 2 14.4 20.8 1.6
203 2 16.0 19.2 0.0
204 1 17.6 20.8 1.6
205 3 19.2 19.2 0.0
206 1 20.8 20.8 1.6
207 3 22.4 19.2 0.0
208 1 24.0 20.8 1.6
209 3 25.6 19.2 0.0
210 1 27.2 20.8 1.6
211 2 28.8 19.2 0.0
212 2 30.4 20.8 1.6
213 2 32.0 19.2 0.0
214 3 33.6 20.8 1.6
215 1 35.2 19.2 0.0
216 2 36.8 20.8 1.6
217 2 38.4 19.2 0.0
218 1 40.0 20.8 1.6
219 1 41.6 19.2 0.0
220 2 43.2 20.8 1.6
221 1 44.8 19.2 0.0
222 1 46.4 20.8 1.6
223 2 48.0 19.2 0.0
224 1 49.6 20.8 1.6
225 3 0.0 22.4 0.0
226 1 1.6 24.0 1.6
227 2 3.2 22.4 0.0
228 2 4.8 24.0 1.6
229 1 6.4 22.4 0.0
230 2 8.0 24.0 1.6
231 1 9.6 22.4 0.0
232 3 11.2 24.0 1.6
233 1 12.8 22.4 0.0
234 3 14.4 24.0 1.6
235 1 16.0 22.4 0.0
236 1 17.6 24.0 1.6
237 3 19.2 22.4 0.0
238 1 20.8 24.0 1.6
239 3 22.4 22.4 0.0
240 1 24.0 24.0 1.6
241 3 25.6 22.4 0.0
242 1 27.2 24.0 1.6
243 2 28.8 22.4 0.0
244 2 30.4 24.0 1.6
245 1 32.0 22.4 0.0
246 2 33.6 24.0 1.6
247 1 35.2 22.4 0.0
248 2 36.8 24.0 1.6
249 2 38.4 22.4 0.0
250 2 40.0 24.0 1.6
251 2 41.6 22.4 0.0
252 2 43.2 24.0 1.6
253 2 44.8 22.4 0.0
254 1 46.4 24.0 1.6
255 3 48.0 22.4 0.0
256 1 49.6 24.0 1.6
257 3 0.0 25.6 0.0
258 1 1.6 27.2 1.6
259 3 3.2 25.6 0.0
260 1 4.8 27.2 1.6
261 2 6.4 25.6 0.0
262 1 8.0 27.2 1.6
263 2 9.6 25.6 0.0
264 3 11.2 27.2 1.6
265 1 12.8 25.6 0.0
266 3 14.4 27.2 1.6
267 1 16.0 25.6 0.0
268 2 17.6 27.2 1.6
269 2 19.2 25.6 0.0
270 2 20.8 27.2 1.6
271 2 22.4 25.6 0.0
272 2 24.0 27.2 1.6
273 2 25.6 25.6 0.0
274 3 27.2 27.2 1.6
275 2 28.8 25.6 0.0
276 3 30.4 27.2 1.6
277 1 32.0 25.6 0.0
278 2 33.6 27.2 1.6
279 1 35.2 25.6 0.0
280 2 36.8 27.2 1.6
281 2 38.4 25.6 0.0
282 2 40.0 27.2 1.6
283 2 41.6 25.6 0.0
284 1 43.2 27.2 1.6
285 3 44.8 25.6 0.0
286 1 46.4 27.2 1.6
287 2 48.0 25.6 0.0
288 1 49.6 27.2 1.6
289 3 0.0 28.8 0.0
290 1 1.6 30.4 1.6
291 3 3.2 28.8 0.0
292 1 4.8 30.4 1.6
293 2 6.4 28.8 0.0
294 1 8.0 30.4 1.6
295 2 9.6 28.8 0.0
296 2 11.2 30.4 1.6
297 1 12.8 28.8 0.0
298 2 14.4 30.4 1.6
299 1 16.0 28.8 0.0
300 3 17.6 30.4 1.6
301 1 19.2 28.8 0.0
302 3 20.8 30.4 1.6
303 1 22.4 28.8 0.0
304 3 24.0 30.4 1.6
305 1 25.6 28.8 0.0
306 3 27.2 30.4 1.6
307 1 28.8 28.8 0.0
308 3 30.4 30.4 1.6
309 1 32.0 28.8 0.0
310 3 33.6 30.4 1.6
311 2 35.2 28.8 0.0
312 1 36.8 30.4 1.6
313 2 38.4 28.8 0.0
314 1 40.0 30.4 1.6
315 2 41.6 28.8 0.0
316 1 43.2 30.4 1.6
317 2 44.8 28.8 0.0
318 1 46.4 30.4 1.6
319 3 48.0 28.8 0.0
320 1 49.6 30.4 1.6
321 2 0.0 32.0 0.0
322 1 1.6 33.6 1.6
323 3 3.2 32.0 0.0
324 1 4.8 33.6 1.6
325 2 6.4 32.0 0.0
326 1 8.0 33.6 1.6
327 2 9.6 32.0 0.0
328 1 11.2 33.6 1.6
329 1 12.8 32.0 0.0
330 2 14.4 33.6 1.6
331 1 16.0 32.0 0.0
332 3 17.6 33.6 1.6
333 1 19.2 32.0 0.0
334 3 20.8 33.6 1.6
335 1 22.4 32.0 0.0
336 3 24.0 33.6 1.6
337 1 25.6 32.0 0.0
338 3 27.2 33.6 1.6
339 1 28.8 32.0 0.0
340 3 30.4 33.6 1.6
341 1 32.0 32.0 0.0
342 2 33.6 33.6 1.6
343 2 35.2 32.0 0.0
344 1 36.8 33.6 1.6
345 2 38.4 32.0 0.0
346 1 40.0 33.6 1.6
347 2 41.6 32.0 0.0
348 2 43.2 33.6 1.6
349 1 44.8 32.0 0.0
350 3 46.4 33.6 1.6
351 1 48.0 32.0 0.0
352 2 49.6 33.6 1.6
353 1 0.0 35.2 0.0
354 2 1.6 36.8 1.6
355 2 3.2 35.2 0.0
356 1 4.8 36.8 1.6
357 2 6.4 35.2 0.0
358 1 8.0 36.8 1.6
359 3 9.6 35.2 0.0
360 1 11.2 36.8 1.6
361 2 12.8 35.2 0.0
362 1 14.4 36.8 1.6
363 1 16.0 35.2 0.0
364 2 17.6 36.8 1.6
365 1 19.2 35.2 0.0
366 3 20.8 36.8 1.6
367 1 22.4 35.2 0.0
368 3 24.0 36.8 1.6
369 1 25.6 35.2 0.0
370 3 27.2 36.8 1.6
371 1 28.8 35.2 0.0
372 3 30.4 36.8 1.6
373 1 32.0 35.2 0.0
374 2 33.6 36.8 1.6
375 2 35.2 35.2 0.0
376 2 36.8 36.8 1.6
377 2 38.4 35.2 0.0
378 1 40.0 36.8 1.6
379 2 41.6 35.2 0.0
380 2 43.2 36.8 1.6
381 1 44.8 35.2 0.0
382 3 46.4 36.8 1.6
383 1 48.0 35.2 0.0
384 2 49.6 36.8 1.6
385 1 0.0 38.4 0.0
386 2 1.6 40.0 1.6
387 1 3.2 38.4 0.0
388 2 4.8 40.0 1.6
389 1 6.4 38.4 0.0
390 2 8.0 40.0 1.6
391 3 9.6 38.4 0.0
392 1 11.2 40.0 1.6
393 3 12.8 38.4 0.0
394 1 14.4 40.0 1.6
395 3 16.0 38.4 0.0
396 1 17.6 40.0 1.6
397 2 19.2 38.4 0.0
398 2 20.8 40.0 1.6
399 1 22.4 38.4 0.0
400 3 24.0 40.0 1.6
401 1 25.6 38.4 0.0
402 3 27.2 40.0 1.6
403 1 28.8 38.4 0.0
404 3 30.4 40.0 1.6
405 1 32.0 38.4 0.0
406 3 33.6 40.0 1.6
407 1 35.2 38.4 0.0
408 3 36.8 40.0 1.6
409 2 38.4 38.4 0.0
410 2 40.0 40.0 1.6
411 1 41.6 38.4 0.0
412 2 43.2 40.0 1.6
413 1 44.8 38.4 0.0
414 3 46.4 40.0 1.6
415 1 48.0 38.4 0.0
416 2 49.6 40.0 1.6
417 1 0.0 41.6 0.0
418 1 1.6 43.2 1.6
419 1 3.2 41.6 0.0
420 2 4.8 43.2 1.6
421 1 6.4 41.6 0.0
422 2 8.0 43.2 1.6
423 2 9.6 41.6 0.0
424 1 11.2 43.2 1.6
425 2 12.8 41.6 0.0
426 1 14.4 43.2 1.6
427 3 16.0 41.6 0.0
428 1 17.6 43.2 1.6
429 3 19.2 41.6 0.0
430 3 20.8 43.2 1.6
431 1 22.4 41.6 0.0
432 3 24.0 43.2 1.6
433 1 25.6 41.6 0.0
434 3 27.2 43.2 1.6
435 1 28.8 41.6 0.0
436 3 30.4 43.2 1.6
437 1 32.0 41.6 0.0
438 3 33.6 43.2 1.6
439 1 35.2 41.6 0.0
440 2 36.8 43.2 1.6
441 1 38.4 41.6 0.0
442 2 40.0 43.2 1.6
443 1 41.6 41.6 0.0
444 2 43.2 43.2 1.6
445 1 44.8 41.6 0.0
446 2 46.4 43.2 1.6
447 1 48.0 41.6 0.0
448 1 49.6 43.2 1.6
449 2 0.0 44.8 0.0
450 1 1.6 46.4 1.6
451 2 3.2 44.8 0.0
452 2 4.8 46.4 1.6
453 2 6.4 44.8 0.0
454 1 8.0 46.4 1.6
455 3 9.6 44.8 0.0
456 1 11.2 46.4 1.6
457 3 12.8 44.8 0.0
458 1 14.4 46.4 1.6
459 3 16.0 44.8 0.0
460 1 17.6 46.4 1.6
461 3 19.2 44.8 0.0
462 3 20.8 46.4 1.6
463 1 22.4 44.8 0.0
464 3 24.0 46.4 1.6
465 1 25.6 44.8 0.0
466 3 27.2 46.4 1.6
467 1 28.8 44.8 0.0
468 3 30.4 46.4 1.6
469 1 32.0 44.8 0.0
470 2 33.6 46.4 1.6
471 1 35.2 44.8 0.0
472 2 36.8 46.4 1.6
473 1 38.4 44.8 0.0
474 2 40.0 46.4 1.6
475 1 41.6 44.8 0.0
476 1 43.2 46.4 1.6
477 2 44.8 44.8 0.0
478 1 46.4 46.4 1.6
479 2 48.0 44.8 0.0
480 1 49.6 46.4 1.6
481 3 0.0 48.0 0.0
482 1 1.6 49.6 1.6
483 2 3.2 48.0 0.0
484 1 4.8 49.6 1.6
485 2 6.4 48.0 0.0
486 1 8.0 49.6 1.6
487 2 9.6 48.0 0.0
488 1 11.2 49.6 1.6
489 3 12.8 48.0 0.0
490 1 14.4 49.6 1.6
491 2 16.0 48.0 0.0
492 2 17.6 49.6 1.6
493 2 19.2 48.0 0.0
494 2 20.8 49.6 1.6
495 2 22.4 48.0 0.0
496 3 24.0 49.6 1.6
497 2 25.6 48.0 0.0
498 1 27.2 49.6 1.6
499 1 28.8 48.0 0.0
500 2 30.4 49.6 1.6
501 2 32.0 48.0 0.0
502 1 33.6 49.6 1.6
503 2 35.2 48.0 0.0
504 1 36.8 49.6 1.6
505 2 38.4 48.0 0.0
506 1 40.0 49.6 1.6
507 2 41.6 48.0 0.0
508 1 43.2 49.6 1.6
509 3 44.8 48.0 0.0
510 1 46.4 49.6 1.6
511 3 48.0 48.0 0.0
512 1 49.6 49.6 1.6
513 3 0.0 0.0 3.2
514 2 1.6 1.6 4.8
515 3 3.2 0.0 3.2
516 1 4.8 1.6 4.8
517 3 6.4 0.0 3.2
518 1 8.0 1.6 4.8
519 2 9.6 0.0 3.2
520 1 11.2 1.6 4.8
521 3 12.8 0.0 3.2
522 2 14.4 1.6 4.8
523 2 16.0 0.0 3.2
524 2 17.6 1.6 4.8
525 1 19.2 0.0 3.2
526 2 20.8 1.6 4.8
527 2 22.4 0.0 3.2
528 1 24.0 1.6 4.8
529 2 25.6 0.0 3.2
530 1 27.2 1.6 4.8
531 2 28.8 0.0 3.2
532 1 30.4 1.6 4.8
533 3 32.0 0.0 3.2
534 1 33.6 1.6 4.8
535 3 35.2 0.0 3.2
536 1 36.8 1.6 4.8
537 3 38.4 0.0 3.2
538 1 40.0 1.6 4.8
539 2 41.6 0.0 3.2
540 1 43.2 1.6 4.8
541 3 44.8 0.0 3.2
542 1 46.4 1.6 4.8
543 2 48.0 0.0 3.2
544 1 49.6 1.6 4.8
545 2 0.0 3.2 3.2
546 1 1.6 4.8 4.8
547 3 3.2 3.2 3.2
548 1 4.8 4.8 4.8
549 3 6.4 3.2 3.2
550 1 8.0 4.8 4.8
551 3 9.6 3.2 3.2
552 1 11.2 4.8 4.8
553 3 12.8 3.2 3.2
554 2 14.4 4.8 4.8
555 2 16.0 3.2 3.2
556 2 17.6 4.8 4.8
557 1 19.2 3.2 3.2
558 2 20.8 4.8 4.8
559 2 22.4 3.2 3.2
560 1 24.0 4.8 4.8
561 3 25.6 3.2 3.2
562 1 27.2 4.8 4.8
563 2 28.8 3.2 3.2
564 1 30.4 4.8 4.8
565 3 32.0 3.2 3.2
566 1 33.6 4.8 4.8
567 3 35.2 3.2 3.2
568 1 36.8 4.8 4.8
569 3 38.4 3.2 3.2
570 1 40.0 4.8 4.8
571 3 41.6 3.2 3.2
572 1 43.2 4.8 4.8
573 2 44.8 3.2 3.2
574 1 46.4 4.8 4.8
575 2 48.0 3.2 3.2
576 1 49.6 4.8 4.8
577 2 0.0 6.4 3.2
578 2 1.6 8.0 4.8
579 2 3.2 6.4 3.2
580 2 4.8 8.0 4.8
581 2 6.4 6.4 3.2
582 2 8.0 8.0 4.8
583 2 9.6 6.4 3.2
584 2 11.2 8.0 4.8
585 2 12.8 6.4 3.2
586 3 14.4 8.0 4.8
587 1 16.0 6.4 3.2
588 3 17.6 8.0 4.8
589 1 19.2 6.4 3.2
590 3 20.8 8.0 4.8
591 2 22.4 6.4 3.2
592 2 24.0 8.0 4.8
593 2 25.6 6.4 3.2
594 1 27.2 8.0 4.8
595 3 28.8 6.4 3.2
596 1 30.4 8.0 4.8
597 2 32.0 6.4 3.2
598 2 33.6 8.0 4.8
599 3 35.2 6.4 3.2
600 2 36.8 8.0 4.8
601 3 38.4 6.4 3.2
602 1 40.0 8.0 4.8
603 3 41.6 6.4 3.2
604 1 43.2 8.0 4.8
605 2 44.8 6.4 3.2
606 1 46.4 8.0 4.8
607 2 48.0 6.4 3.2
608 2 49.6 8.0 4.8
609 1 0.0 9.6 3.2
610 2 1.6 11.2 4.8
611 1 3.2 9.6 3.2
612 3 4.8 11.2 4.8
613 1 6.4 9.6 3.2
614 3 8.0 11.2 4.8
615 1 9.6 9.6 3.2
616 3 11.2 11.2 4.8
617 1 12.8 9.6 3.2
618 3 14.4 11.2 4.8
619 1 16.0 9.6 3.2
620 2 17.6 11.2 4.8
621 1 19.2 9.6 3.2
622 3 20.8 11.2 4.8
623 1 22.4 9.6 3.2
624 3 24.0 11.2 4.8
625 1 25.6 9.6 3.2
626 2 27.2 11.2 4.8
627 2 28.8 9.6 3.2
628 1 30.4 11.2 4.8
629 2 32.0 9.6 3.2
630 2 33.6 11.2 4.8
631 1 35.2 9.6 3.2
632 2 36.8 11.2 4.8
633 2 38.4 9.6 3.2
634 2 40.0 11.2 4.8
635 2 41.6 9.6 3.2
636 2 43.2 11.2 4.8
637 2 44.8 9.6 3.2
638 2 46.4 11.2 4.8
639 1 48.0 9.6 3.2
640 3 49.6 11.2 4.8
641 1 0.0 12.8 3.2
642 2 1.6 14.4 4.8
643 1 3.2 12.8 3.2
644 3 4.8 14.4 4.8
645 1 6.4 12.8 3.2
646 3 8.0 14.4 4.8
647 1 9.6 12.8 3.2
648 3 11.2 14.4 4.8
649 1 12.8 12.8 3.2
650 2 14.4 14.4 4.8
651 1 16.0 12.8 3.2
652 2 17.6 14.4 4.8
653 1 19.2 12.8 3.2
654 2 20.8 14.4 4.8
655 1 22.4 12.8 3.2
656 2 24.0 14.4 4.8
657 2 25.6 12.8 3.2
658 1 27.2 14.4 4.8
659 2 28.8 12.8 3.2
660 1 30.4 14.4 4.8
661 2 32.0 12.8 3.2
662 2 33.6 14.4 4.8
663 1 35.2 12.8 3.2
664 3 36.8 14.4 4.8
665 1 38.4 12.8 3.2
666 2 40.0 14.4 4.8
667 1 41.6 12.8 3.2
668 3 43.2 14.4 4.8
669 1 44.8 12.8 3.2
670 3 46.4 14.4 4.8
671 1 48.0 12.8 3.2
672 2 49.6 14.4 4.8
673 2 0.0 16.0 3.2
674 1 1.6 17.6 4.8
675 1 3.2 16.0 3.2
676 2 4.8 17.6 4.8
677 1 6.4 16.0 3.2
678 3 8.0 17.6 4.8
679 1 9.6 16.0 3.2
680 3 11.2 17.6 4.8
681 1 12.8 16.0 3.2
682 2 14.4 17.6 4.8
683 2 16.0 16.0 3.2
684 1 17.6 17.6 4.8
685 2 19.2 16.0 3.2
686 2 20.8 17.6 4.8
687 1 22.4 16.0 3.2
688 1 24.0 17.6 4.8
689 2 25.6 16.0 3.2
690 1 27.2 17.6 4.8
691 2 28.8 16.0 3.2
692 1 30.4 17.6 4.8
693 2 32.0 16.0 3.2
694 1 33.6 17.6 4.8
695 1 35.2 16.0 3.2
696 2 36.8 17.6 4.8
697 1 38.4 16.0 3.2
698 3 40.0 17.6 4.8
699 1 41.6 16.0 3.2
700 3 43.2 17.6 4.8
701 1 44.8 16.0 3.2
702 2 46.4 17.6 4.8
703 2 48.0 16.0 3.2
704 2 49.6 17.6 4.8
705 2 0.0 19.2 3.2
706 1 1.6 20.8 4.8
707 2 3.2 19.2 3.2
708 2 4.8 20.8 4.8
709 1 6.4 19.2 3.2
710 2 8.0 20.8 4.8
711 1 9.6 19.2 3.2
712 2 11.2 20.8 4.8
713 1 12.8 19.2 3.2
714 2 14.4 20.8 4.8
715 2 16.0 19.2 3.2
716 1 17.6 20.8 4.8
717 3 19.2 19.2 3.2
718 1 20.8 20.8 4.8
719 3 22.4 19.2 3.2
720 1 24.0 20.8 4.8
721 3 25.6 19.2 3.2
722 1 27.2 20.8 4.8
723 3 28.8 19.2 3.2
724 2 30.4 20.8 4.8
725 2 32.0 19.2 3.2
726 2 33.6 20.8 4.8
727 1 35.2 19.2 3.2
728 2 36.8 20.8 4.8
729 2 38.4 19.2 3.2
730 2 40.0 20.8 4.8
731 1 41.6 19.2 3.2
732 3 43.2 20.8 4.8
733 1 44.8 19.2 3.2
734 2 46.4 20.8 4.8
735 2 48.0 19.2 3.2
736 1 49.6 20.8 4.8
737 2 0.0 22.4 3.2
738 1 1.6 24.0 4.8
739 2 3.2 22.4 3.2
740 1 4.8 24.0 4.8
741 1 6.4 22.4 3.2
742 2 8.0 24.0 4.8
743 1 9.6 22.4 3.2
744 2 11.2 24.0 4.8
745 1 12.8 22.4 3.2
746 3 14.4 24.0 4.8
747 2 16.0 22.4 3.2
748 2 17.6 24.0 4.8
749 2 19.2 22.4 3.2
750 2 20.8 24.0 4.8
751 2 22.4 22.4 3.2
752 2 24.0 24.0 4.8
753 3 25.6 22.4 3.2
754 1 27.2 24.0 4.8
755 2 28.8 22.4 3.2
756 2 30.4 24.0 4.8
757 1 32.0 22.4 3.2
758 3 33.6 24.0 4.8
759 2 35.2 22.4 3.2
760 2 36.8 24.0 4.8
761 2 38.4 22.4 3.2
762 2 40.0 24.0 4.8
763 1 41.6 22.4 3.2
764 2 43.2 24.0 4.8
765 1 44.8 22.4 3.2
766 2 46.4 24.0 4.8
767 3 48.0 22.4 3.2
768 1 49.6 24.0 4.8
769 3 0.0 25.6 3.2
770 1 1.6 27.2 4.8
771 2 3.2 25.6 3.2
772 1 4.8 27.2 4.8
773 2 6.4 25.6 3.2
774 2 8.0 27.2 4.8
775 1 9.6 25.6 3.2
776 2 11.2 27.2 4.8
777 1 12.8 25.6 3.2
778 3 14.4 27.2 4.8
779 2 16.0 25.6 3.2
780 2 17.6 27.2 4.8
781 2 19.2 25.6 3.2
782 2 20.8 27.2 4.8
783 2 22.4 25.6 3.2
784 2 24.0 27.2 4.8
785 2 25.6 25.6 3.2
786 2 27.2 27.2 4.8
787 2 28.8 25.6 3.2
788 2 30.4 27.2 4.8
789 1 32.0 25.6 3.2
790 3 33.6 27.2 4.8
791 1 35.2 25.6 3.2
792 2 36.8 27.2 4.8
793 2 38.4 25.6 3.2
794 3 40.0 27.2 4.8
795 1 41.6 25.6 3.2
796 2 43.2 27.2 4.8
797 2 44.8 25.6 3.2
798 2 46.4 27.2 4.8
799 2 48.0 25.6 3.2
800 1 49.6 27.2 4.8
801 3 0.0 28.8 3.2
802 1 1.6 30.4 4.8
803 3 3.2 28.8 3.2
804 1 4.8 30.4 4.8
805 2 6.4 28.8 3.2
806 2 8.0 30.4 4.8
807 1 9.6 28.8 3.2
808 2 11.2 30.4 4.8
809 1 12.8 28.8 3.2
810 2 14.4 30.4 4.8
811 1 16.0 28.8 3.2
812 3 17.6 30.4 4.8
813 1 19.2 28.8 3.2
814 2 20.8 30.4 4.8
815 1 22.4 28.8 3.2
816 3 24.0 30.4 4.8
817 1 25.6 28.8 3.2
818 3 27.2 30.4 4.8
819 1 28.8 28.8 3.2
820 3 30.4 30.4 4.8
821 1 32.0 28.8 3.2
822 3 33.6 30.4 4.8
823 1 35.2 28.8 3.2
824 2 36.8 30.4 4.8
825 2 38.4 28.8 3.2
826 2 40.0 30.4 4.8
827 2 41.6 28.8 3.2
828 1 43.2 30.4 4.8
829 3 44.8 28.8 3.2
830 1 46.4 30.4 4.8
831 2 48.0 28.8 3.2
832 1 49.6 30.4 4.8
833 3 0.0 32.0 3.2
834 1 1.6 33.6 4.8
835 3 3.2 32.0 3.2
836 1 4.8 33.6 4.8
837 3 6.4 32.0 3.2
838 1 8.0 33.6 4.8
839 3 9.6 32.0 3.2
840 1 11.2 33.6 4.8
841 2 12.8 32.0 3.2
842 2 14.4 33.6 4.8
843 2 16.0 32.0 3.2
844 2 17.6 33.6 4.8
845 1 19.2 32.0 3.2
846 3 20.8 33.6 4.8
847 1 22.4 32.0 3.2
848 3 24.0 33.6 4.8
849 1 25.6 32.0 3.2
850 3 27.2 33.6 4.8
851 1 28.8 32.0 3.2
852 3 30.4 33.6 4.8
853 1 32.0 32.0 3.2
854 2 33.6 33.6 4.8
855 2 35.2 32.0 3.2
856 1 36.8 33.6 4.8
857 2 38.4 32.0 3.2
858 1 40.0 33.6 4.8
859 2 41.6 32.0 3.2
860 1 43.2 33.6 4.8
861 3 44.8 32.0 3.2
862 1 46.4 33.6 4.8
863 3 48.0 32.0 3.2
864 1 49.6 33.6 4.8
865 2 0.0 35.2 3.2
866 1 1.6 36.8 4.8
867 3 3.2 35.2 3.2
868 1 4.8 36.8 4.8
869 3 6.4 35.2 3.2
870 1 8.0 36.8 4.8
871 3 9.6 35.2 3.2
872 1 11.2 36.8 4.8
873 3 12.8 35.2 3.2
874 1 14.4 36.8 4.8
875 2 16.0 35.2 3.2
876 1 17.6 36.8 4.8
877 1 19.2 35.2 3.2
878 2 20.8 36.8 4.8
879 1 22.4 35.2 3.2
880 2 24.0 36.8 4.8
881 1 25.6 35.2 3.2
882 3 27.2 36.8 4.8
883 1 28.8 35.2 3.2
884 3 30.4 36.8 4.8
885 1 32.0 35.2 3.2
886 3 33.6 36.8 4.8
887 2 35.2 35.2 3.2
888 2 36.8 36.8 4.8
889 2 38.4 35.2 3.2
890 1 40.0 36.8 4.8
891 2 41.6 35.2 3.2
892 1 43.2 36.8 4.8
893 2 44.8 35.2 3.2
894 1 46.4 36.8 4.8
895 3 48.0 35.2 3.2
896 1 49.6 36.8 4.8
897 2 0.0 38.4 3.2
898 1 1.6 40.0 4.8
899 2 3.2 38.4 3.2
900 1 4.8 40.0 4.8
901 2 6.4 38.4 3.2
902 1 8.0 40.0 4.8
903 3 9.6 38.4 3.2
904 1 11.2 40.0 4.8
905 3 12.8 38.4 3.2
906 1 14.4 40.0 4.8
907 3 16.0 38.4 3.2
908 2 17.6 40.0 4.8
909 3 19.2 38.4 3.2
910 3 20.8 40.0 4.8
911 1 22.4 38.4 3.2
912 3 24.0 40.0 4.8
913 1 25.6 38.4 3.2
914 3 27.2 40.0 4.8
915 1 28.8 38.4 3.2
916 3 30.4 40.0 4.8
917 1 32.0 38.4 3.2
918 2 33.6 40.0 4.8
919 1 35.2 38.4 3.2
920 2 36.8 40.0 4.8
921 2 38.4 38.4 3.2
922 1 40.0 40.0 4.8
923 2 41.6 38.4 3.2
924 1 43.2 40.0 4.8
925 2 44.8 38.4 3.2
926 1 46.4 40.0 4.8
927 2 48.0 38.4 3.2
928 1 49.6 40.0 4.8
929 3 0.0 41.6 3.2
930 1 1.6 43.2 4.8
931 3 3.2 41.6 3.2
932 1 4.8 43.2 4.8
933 2 6.4 41.6 3.2
934 1 8.0 43.2 4.8
935 2 9.6 41.6 3.2
936 1 11.2 43.2 4.8
937 2 12.8 41.6 3.2
938 1 14.4 43.2 4.8
939 3 16.0 41.6 3.2
940 2 17.6 43.2 4.8
941 2 19.2 41.6 3.2
942 3 20.8 43.2 4.8
943 1 22.4 41.6 3.2
944 3 24.0 43.2 4.8
945 1 25.6 41.6 3.2
946 3 27.2 43.2 4.8
947 1 28.8 41.6 3.2
948 2 30.4 43.2 4.8
949 1 32.0 41.6 3.2
950 2 33.6 43.2 4.8
951 1 35.2 41.6 3.2
952 1 36.8 43.2 4.8
953 2 38.4 41.6 3.2
954 1 40.0 43.2 4.8
955 2 41.6 41.6 3.2
956 1 43.2 43.2 4.8
957 2 44.8 41.6 3.2
958 2 46.4 43.2 4.8
959 2 48.0 41.6 3.2
960 2 49.6 43.2 4.8
961 3 0.0 44.8 3.2
962 1 1.6 46.4 4.8
963 3 3.2 44.8 3.2
964 2 4.8 46.4 4.8
965 1 6.4 44.8 3.2
966 2 8.0 46.4 4.8
967 3 9.6 44.8 3.2
968 1 11.2 46.4 4.8
969 2 12.8 44.8 3.2
970 1 14.4 46.4 4.8
971 2 16.0 44.8 3.2
972 3 17.6 46.4 4.8
973 2 19.2 44.8 3.2
974 3 20.8 46.4 4.8
975 1 22.4 44.8 3.2
976 3 24.0 46.4 4.8
977 1 25.6 44.8 3.2
978 3 27.2 46.4 4.8
979 1 28.8 44.8 3.2
980 2 30.4 46.4 4.8
981 1 32.0 44.8 3.2
982 2 33.6 46.4 4.8
983 1 35.2 44.8 3.2
984 1 36.8 46.4 4.8
985 2 38.4 44.8 3.2
986 1 40.0 46.4 4.8
987 2 41.6 44.8 3.2
988 1 43.2 46.4 4.8
989 2 44.8 44.8 3.2
990 2 46.4 46.4 4.8
991 2 48.0 44.8 3.2
992 2 49.6 46.4 4.8
993 3 0.0 48.0 3.2
994 1 1.6 49.6 4.8
995 2 3.2 48.0 3.2
996 1 4.8 49.6 4.8
997 2 6.4 48.0 3.2
998 2 8.0 49.6 4.8
999 3 9.6 48.0 3.2
1000 1 11.2 49.6 4.8
1001 3 12.8 48.0 3.2
1002 1 14.4 49.6 4.8
1003 2 16.0 48.0 3.2
1004 2 17.6 49.6 4.8
1005 1 19.2 48.0 3.2
1006 2 20.8 49.6 4.8
1007 1 22.4 48.0 3.2
1008 3 24.0 49.6 4.8
1009 1 25.6 48.0 3.2
1010 2 27.2 49.6 4.8
1011 1 28.8 48.0 3.2
1012 3 30.4 49.6 4.8
1013 1 32.0 48.0 3.2
1014 1 33.6 49.6 4.8
1015 2 35.2 48.0 3.2
1016 1 36.8 49.6 4.8
1017 3 38.4 48.0 3.2
1018 1 40.0 49.6 4.8
1019 3 41.6 48.0 3.2
1020 2 43.2 49.6 4.8
1021 3 44.8 48.0 3.2
1022 2 46.4 49.6 4.8
1023 2 48.0 48.0 3.2
1024 1 49.6 49.6 4.8
1025 2 0.0 0.0 6.4
1026 1 1.6 1.6 8.0
1027 2 3.2 0.0 6.4
1028 1 4.8 1.6 8.0
1029 3 6.4 0.0 6.4
1030 2 8.0 1.6 8.0
1031 2 9.6 0.0 6.4
1032 3 11.2 1.6 8.0
1033 2 12.8 0.0 6.4
1034 2 14.4 1.6 8.0
1035 1 16.0 0.0 6.4
1036 3 17.6 1.6 8.0
1037 1 19.2 0.0 6.4
1038 2 20.8 1.6 8.0
1039 1 22.4 0.0 6.4
1040 3 24.0 1.6 8.0
1041 2 25.6 0.0 6.4
1042 2 27.2 1.6 8.0
1043 2 28.8 0.0 6.4
1044 1 30.4 1.6 8.0
1045 3 32.0 0.0 6.4
1046 1 33.6 1.6 8.0
1047 3 35.2 0.0 6.4
1048 1 36.8 1.6 8.0
1049 3 38.4 0.0 6.4
1050 1 40.0 1.6 8.0
1051 3 41.6 0.0 6.4
1052 1 43.2 1.6 8.0
1053 2 44.8 0.0 6.4
1054 2 46.4 1.6 8.0
1055 2 48.0 0.0 6.4
1056 2 49.6 1.6 8.0
1057 3 0.0 3.2 6.4
1058 1 1.6 4.8 8.0
1059 2 3.2 3.2 6.4
1060 1 4.8 4.8 8.0
1061 2 6.4 3.2 6.4
1062 2 8.0 4.8 8.0
1063 2 9.6 3.2 6.4
1064 3 11.2 4.8 8.0
1065 2 12.8 3.2 6.4
1066 3 14.4 4.8 8.0
1067 1 16.0 3.2 6.4
1068 3 17.6 4.8 8.0
1069 1 19.2 3.2 6.4
1070 2 20.8 4.8 8.0
1071 2 22.4 3.2 6.4
1072 1 24.0 4.8 8.0
1073 2 25.6 3.2 6.4
1074 1 27.2 4.8 8.0
1075 2 28.8 3.2 6.4
1076 1 30.4 4.8 8.0
1077 2 32.0 3.2 6.4
1078 1 33.6 4.8 8.0
1079 3 35.2 3.2 6.4
1080 1 36.8 4.8 8.0
1081 3 38.4 3.2 6.4
1082 1 40.0 4.8 8.0
1083 3 41.6 3.2 6.4
1084 1 43.2 4.8 8.0
1085 2 44.8 3.2 6.4
1086 1 46.4 4.8 8.0
1087 3 48.0 3.2 6.4
1088 1 49.6 4.8 8.0
1089 2 0.0 6.4 6.4
1090 2 1.6 8.0 8.0
1091 2 3.2 6.4 6.4
1092 2 4.8 8.0 8.0
1093 2 6.4 6.4 6.4
1094 2 8.0 8.0 8.0
1095 2 9.6 6.4 6.4
1096 3 11.2 8.0 8.0
1097 1 12.8 6.4 6.4
1098 3 14.4 8.0 8.0
1099 1 16.0 6.4 6.4
1100 3 17.6 8.0 8.0
1101 1 19.2 6.4 6.4
1102 2 20.8 8.0 8.0
1103 2 22.4 6.4 6.4
1104 2 24.0 8.0 8.0
1105 2 25.6 6.4 6.4
1106 1 27.2 8.0 8.0
1107 2 28.8 6.4 6.4
1108 1 30.4 8.0 8.0
1109 2 32.0 6.4 6.4
1110 2 33.6 8.0 8.0
1111 2 35.2 6.4 6.4
1112 2 36.8 8.0 8.0
1113 2 38.4 6.4 6.4
1114 2 40.0 8.0 8.0
1115 2 41.6 6.4 6.4
1116 2 43.2 8.0 8.0
1117 3 44.8 6.4 6.4
1118 1 46.4 8.0 8.0
1119 2 48.0 6.4 6.4
1120 1 49.6 8.0 8.0
1121 1 0.0 9.6 6.4
1122 3 1.6 11.2 8.0
1123 1 3.2 9.6 6.4
1124 2 4.8 11.2 8.0
1125 1 6.4 9.6 6.4
1126 3 8.0 11.2 8.0
1127 1 9.6 9.6 6.4
1128 3 11.2 11.2 8.0
1129 1 12.8 9.6 6.4
1130 3 14.4 11.2 8.0
1131 1 16.0 9.6 6.4
1132 2 17.6 11.2 8.0
1133 1 19.2 9.6 6.4
1134 2 20.8 11.2 8.0
1135 1 22.4 9.6 6.4
1136 2 24.0 11.2 8.0
1137 2 25.6 9.6 6.4
1138 1 27.2 11.2 8.0
1139 2 28.8 9.6 6.4
1140 1 30.4 11.2 8.0
1141 2 32.0 9.6 6.4
1142 2 33.6 11.2 8.0
1143 1 35.2 9.6 6.4
1144 2 36.8 11.2 8.0
1145 1 38.4 9.6 6.4
1146 2 40.0 11.2 8.0
1147 1 41.6 9.6 6.4
1148 3 43.2 11.2 8.0
1149 3 44.8 9.6 6.4
1150 2 46.4 11.2 8.0
1151 2 48.0 9.6 6.4
1152 2 49.6 11.2 8.0
1153 1 0.0 12.8 6.4
1154 2 1.6 14.4 8.0
1155 1 3.2 12.8 6.4
1156 2 4.8 14.4 8.0
1157 1 6.4 12.8 6.4
1158 3 8.0 14.4 8.0
1159 1 9.6 12.8 6.4
1160 3 11.2 14.4 8.0
1161 1 12.8 12.8 6.4
1162 2 14.4 14.4 8.0
1163 1 16.0 12.8 6.4
1164 2 17.6 14.4 8.0
1165 1 19.2 12.8 6.4
1166 2 20.8 14.4 8.0
1167 1 22.4 12.8 6.4
1168 2 24.0 14.4 8.0
1169 3 25.6 12.8 6.4
1170 1 27.2 14.4 8.0
1171 2 28.8 12.8 6.4
1172 1 30.4 14.4 8.0
1173 2 32.0 12.8 6.4
1174 2 33.6 14.4 8.0
1175 1 35.2 12.8 6.4
1176 2 36.8 14.4 8.0
1177 1 38.4 12.8 6.4
1178 2 40.0 14.4 8.0
1179 1 41.6 12.8 6.4
1180 2 43.2 14.4 8.0
1181 1 44.8 12.8 6.4
1182 3 46.4 14.4 8.0
1183 1 48.0 12.8 6.4
1184 2 49.6 14.4 8.0
1185 2 0.0 16.0 6.4
1186 1 1.6 17.6 8.0
1187 2 3.2 16.0 6.4
1188 1 4.8 17.6 8.0
1189 1 6.4 16.0 6.4
1190 2 8.0 17.6 8.0
1191 1 9.6 16.0 6.4
1192 2 11.2 17.6 8.0
1193 1 12.8 16.0 6.4
1194 1 14.4 17.6 8.0
1195 2 16.0 16.0 6.4
1196 1 17.6 17.6 8.0
1197 2 19.2 16.0 6.4
1198 2 20.8 17.6 8.0
1199 1 22.4 16.0 6.4
1200 2 24.0 17.6 8.0
1201 2 25.6 16.0 6.4
1202 2 27.2 17.6 8.0
1203 3 28.8 16.0 6.4
1204 2 30.4 17.6 8.0
1205 2 32.0 16.0 6.4
1206 2 33.6 17.6 8.0
1207 2 35.2 16.0 6.4
1208 2 36.8 17.6 8.0
1209 1 38.4 16.0 6.4
1210 2 40.0 17.6 8.0
1211 1 41.6 16.0 6.4
1212 3 43.2 17.6 8.0
1213 1 44.8 16.0 6.4
1214 2 46.4 17.6 8.0
1215 2 48.0 16.0 6.4
1216 1 49.6 17.6 8.0
1217 2 0.0 19.2 6.4
1218 1 1.6 20.8 8.0
1219 3 3.2 19.2 6.4
1220 1 4.8 20.8 8.0
1221 2 6.4 19.2 6.4
1222 1 8.0 20.8 8.0
1223 1 9.6 19.2 6.4
1224 1 11.2 20.8 8.0
1225 2 12.8 19.2 6.4
1226 2 14.4 20.8 8.0
1227 2 16.0 19.2 6.4
1228 1 17.6 20.8 8.0
1229 2 19.2 19.2 6.4
1230 1 20.8 20.8 8.0
1231 3 22.4 19.2 6.4
1232 1 24.0 20.8 8.0
1233 2 25.6 19.2 6.4
1234 2 27.2 20.8 8.0
1235 2 28.8 19.2 6.4
1236 2 30.4 20.8 8.0
1237 1 32.0 19.2 6.4
1238 3 33.6 20.8 8.0
1239 1 35.2 19.2 6.4
1240 3 36.8 20.8 8.0
1241 1 38.4 19.2 6.4
1242 2 40.0 20.8 8.0
1243 1 41.6 19.2 6.4
1244 2 43.2 20.8 8.0
1245 1 44.8 19.2 6.4
1246 1 46.4 20.8 8.0
1247 2 48.0 19.2 6.4
1248 1 49.6 20.8 8.0
1249 3 0.0 22.4 6.4
1250 1 1.6 24.0 8.0
1251 3 3.2 22.4 6.4
1252 1 4.8 24.0 8.0
1253 2 6.4 22.4 6.4
1254 2 8.0 24.0 8.0
1255 2 9.6 22.4 6.4
1256 2 11.2 24.0 8.0
1257 1 12.8 22.4 6.4
1258 2 14.4 24.0 8.0
1259 2 16.0 22.4 6.4
1260 3 17.6 24.0 8.0
1261 2 19.2 22.4 6.4
1262 2 20.8 24.0 8.0
1263 2 22.4 22.4 6.4
1264 2 24.0 24.0 8.0
1265 2 25.6 22.4 6.4
1266 1 27.2 24.0 8.0
1267 2 28.8 22.4 6.4
1268 1 30.4 24.0 8.0
1269 1 32.0 22.4 6.4
1270 2 33.6 24.0 8.0
1271 1 35.2 22.4 6.4
1272 3 36.8 24.0 8.0
1273 1 38.4 22.4 6.4
1274 3 40.0 24.0 8.0
1275 1 41.6 22.4 6.4
1276 3 43.2 24.0 8.0
1277 1 44.8 22.4 6.4
1278 2 46.4 24.0 8.0
1279 2 48.0 22.4 6.4
1280 1 49.6 24.0 8.0
1281 3 0.0 25.6 6.4
1282 1 1.6 27.2 8.0
1283 3 3.2 25.6 6.4
1284 2 4.8 27.2 8.0
1285 2 6.4 25.6 6.4
1286 2 8.0 27.2 8.0
1287 2 9.6 25.6 6.4
1288 3 11.2 27.2 8.0
1289 1 12.8 25.6 6.4
1290 3 14.4 27.2 8.0
1291 1 16.0 25.6 6.4
1292 3 17.6 27.2 8.0
1293 1 19.2 25.6 6.4
1294 3 20.8 27.2 8.0
1295 1 22.4 25.6 6.4
1296 3 24.0 27.2 8.0
1297 1 25.6 25.6 6.4
1298 2 27.2 27.2 8.0
1299 2 28.8 25.6 6.4
1300 2 30.4 27.2 8.0
1301 1 32.0 25.6 6.4
1302 3 33.6 27.2 8.0
1303 1 35.2 25.6 6.4
1304 3 36.8 27.2 8.0
1305 1 38.4 25.6 6.4
1306 3 40.0 27.2 8.0
1307 1 41.6 25.6 6.4
1308 2 43.2 27.2 8.0
1309 1 44.8 25.6 6.4
1310 1 46.4 27.2 8.0
1311 2 48.0 25.6 6.4
1312 1 49.6 27.2 8.0
1313 3 0.0 28.8 6.4
1314 1 1.6 30.4 8.0
1315 3 3.2 28.8 6.4
1316 1 4.8 30.4 8.0
1317 2 6.4 28.8 6.4
1318 1 8.0 30.4 8.0
1319 1 9.6 28.8 6.4
1320 3 11.2 30.4 8.0
1321 1 12.8 28.8 6.4
1322 3 14.4 30.4 8.0
1323 1 16.0 28.8 6.4
1324 2 17.6 30.4 8.0
1325 1 19.2 28.8 6.4
1326 3 20.8 30.4 8.0
1327 1 22.4 28.8 6.4
1328 3 24.0 30.4 8.0
1329 1 25.6 28.8 6.4
1330 3 27.2 30.4 8.0
1331 1 28.8 28.8 6.4
1332 3 30.4 30.4 8.0
1333 1 32.0 28.8 6.4
1334 3 33.6 30.4 8.0
1335 1 35.2 28.8 6.4
1336 2 36.8 30.4 8.0
1337 1 38.4 28.8 6.4
1338 2 40.0 30.4 8.0
1339 2 41.6 28.8 6.4
1340 1 43.2 30.4 8.0
1341 2 44.8 28.8 6.4
1342 1 46.4 30.4 8.0
1343 2 48.0 28.8 6.4
1344 2 49.6 30.4 8.0
1345 3 0.0 32.0 6.4
1346 1 1.6 33.6 8.0
1347 2 3.2 32.0 6.4
1348 1 4.8 33.6 8.0
1349 2 6.4 32.0 6.4
1350 1 8.0 33.6 8.0
1351 2 9.6 32.0 6.4
1352 1 11.2 33.6 8.0
1353 2 12.8 32.0 6.4
1354 1 14.4 33.6 8.0
1355 2 16.0 32.0 6.4
1356 2 17.6 33.6 8.0
1357 1 19.2 32.0 6.4
1358 3 20.8 33.6 8.0
1359 1 22.4 32.0 6.4
1360 3 24.0 33.6 8.0
1361 1 25.6 32.0 6.4
1362 2 27.2 33.6 8.0
1363 1 28.8 32.0 6.4
1364 3 30.4 33.6 8.0
1365 1 32.0 32.0 6.4
1366 2 33.6 33.6 8.0
1367 2 35.2 32.0 6.4
1368 1 36.8 33.6 8.0
1369 2 38.4 32.0 6.4
1370 1 40.0 33.6 8.0
1371 2 41.6 32.0 6.4
1372 1 43.2 33.6 8.0
1373 3 44.8 32.0 6.4
1374 1 46.4 33.6 8.0
1375 3 48.0 32.0 6.4
1376 1 49.6 33.6 8.0
1377 3 0.0 35.2 6.4
1378 1 1.6 36.8 8.0
1379 3 3.2 35.2 6.4
1380 1 4.8 36.8 8.0
1381 2 6.4 35.2 6.4
1382 1 8.0 36.8 8.0
1383 3 9.6 35.2 6.4
1384 1 11.2 36.8 8.0
1385 2 12.8 35.2 6.4
1386 1 14.4 36.8 8.0
1387 2 16.0 35.2 6.4
1388 1 17.6 36.8 8.0
1389 1 19.2 35.2 6.4
1390 2 20.8 36.8 8.0
1391 1 22.4 35.2 6.4
1392 3 24.0 36.8 8.0
1393 1 25.6 35.2 6.4
1394 3 27.2 36.8 8.0
1395 1 28.8 35.2 6.4
1396 3 30.4 36.8 8.0
1397 1 32.0 35.2 6.4
1398 2 33.6 36.8 8.0
1399 2 35.2 35.2 6.4
1400 1 36.8 36.8 8.0
1401 2 38.4 35.2 6.4
1402 1 40.0 36.8 8.0
1403 2 41.6 35.2 6.4
1404 1 43.2 36.8 8.0
1405 2 44.8 35.2 6.4
1406 1 46.4 36.8 8.0
1407 2 48.0 35.2 6.4
1408 1 49.6 36.8 8.0
1409 3 0.0 38.4 6.4
1410 1 1.6 40.0 8.0
1411 3 3.2 38.4 6.4
1412 1 4.8 40.0 8.0
1413 3 6.4 38.4 6.4
1414 1 8.0 40.0 8.0
1415 3 9.6 38.4 6.4
1416 1 11.2 40.0 8.0
1417 3 12.8 38.4 6.4
1418 1 14.4 40.0 8.0
1419 2 16.0 38.4 6.4
1420 2 17.6 40.0 8.0
1421 2 19.2 38.4 6.4
1422 3 20.8 40.0 8.0
1423 1 22.4 38.4 6.4
1424 3 24.0 40.0 8.0
1425 1 25.6 38.4 6.4
1426 3 27.2 40.0 8.0
1427 1 28.8 38.4 6.4
1428 3 30.4 40.0 8.0
1429 1 32.0 38.4 6.4
1430 2 33.6 40.0 8.0
1431 2 35.2 38.4 6.4
1432 1 36.8 40.0 8.0
1433 3 38.4 38.4 6.4
1434 1 40.0 40.0 8.0
1435 3 41.6 38.4 6.4
1436 1 43.2 40.0 8.0
1437 3 44.8 38.4 6.4
1438 1 46.4 40.0 8.0
1439 2 48.0 38.4 6.4
1440 2 49.6 40.0 8.0
1441 2 0.0 41.6 6.4
1442 1 1.6 43.2 8.0
1443 2 3.2 41.6 6.4
1444 1 4.8 43.2 8.0
1445 3 6.4 41.6 6.4
1446 2 8.0 43.2 8.0
1447 3 9.6 41.6 6.4
1448 1 11.2 43.2 8.0
1449 2 12.8 41.6 6.4
1450 2 14.4 43.2 8.0
1451 2 16.0 41.6 6.4
1452 2 17.6 43.2 8.0
1453 1 19.2 41.6 6.4
1454 3 20.8 43.2 8.0
1455 1 22.4 41.6 6.4
1456 3 24.0 43.2 8.0
1457 1 25.6 41.6 6.4
1458 3 27.2 43.2 8.0
1459 1 28.8 41.6 6.4
1460 3 30.4 43.2 8.0
1461 1 32.0 41.6 6.4
1462 2 33.6 43.2 8.0
1463 2 35.2 41.6 6.4
1464 1 36.8 43.2 8.0
1465 3 38.4 41.6 6.4
1466 1 40.0 43.2 8.0
1467 3 41.6 41.6 6.4
1468 1 43.2 43.2 8.0
1469 2 44.8 41.6 6.4
1470 2 46.4 43.2 8.0
1471 2 48.0 41.6 6.4
1472 2 49.6 43.2 8.0
1473 2 0.0 44.8 6.4
1474 1 1.6 46.4 8.0
1475 3 3.2 44.8 6.4
1476 1 4.8 46.4 8.0
1477 2 6.4 44.8 6.4
1478 2 8.0 46.4 8.0
1479 3 9.6 44.8 6.4
1480 1 11.2 46.4 8.0
1481 2 12.8 44.8 6.4
1482 2 14.4 46.4 8.0
1483 1 16.0 44.8 6.4
1484 3 17.6 46.4 8.0
1485 1 19.2 44.8 6.4
1486 3 20.8 46.4 8.0
1487 1 22.4 44.8 6.4
1488 3 24.0 46.4 8.0
1489 1 25.6 44.8 6.4
1490 3 27.2 46.4 8.0
1491 1 28.8 44.8 6.4
1492 3 30.4 46.4 8.0
1493 1 32.0 44.8 6.4
1494 2 33.6 46.4 8.0
1495 2 35.2 44.8 6.4
1496 1 36.8 46.4 8.0
1497 3 38.4 44.8 6.4
1498 1 40.0 46.4 8.0
1499 3 41.6 44.8 6.4
1500 1 43.2 46.4 8.0