ITEM: TIMESTEP
0
ITEM: NUMBER OF ATOMS
8192
ITEM: BOX BOUNDS pp pp pp
0.0000000000000000e+00 5.1200000000000003e+01
0.0000000000000000e+00 5.1200000000000003e+01
0.0000000000000000e+00 5.1200000000000003e+01
ITEM: ATOMS id type x y z c_eng
1 3 0 0 0 -11.0209
2 1 1.6 1.6 1.6 -11.5023
3 1 3.2 0 0 -11.4497
4 2 4.8 1.6 1.6 -9.5291
5 1 6.4 0 0 -11.6526
6 1 8 1.6 1.6 -11.5774
7 2 9.6 0 0 -9.61357
8 1 11.2 1.6 1.6 -11.535
9 1 12.8 0 0 -11.4726
10 3 14.4 1.6 1.6 -11.1514
11 1 16 0 0 -11.5203
12 1 17.6 1.6 1.6 -11.5528
13 1 19.2 0 0 -11.4702
14 1 20.8 1.6 1.6 -11.3931
15 1 22.4 0 0 -11.5301
16 1 24 1.6 1.6 -11.5698
17 1 25.6 0 0 -11.4756
18 1 27.2 1.6 1.6 -11.6051
19 2 28.8 0 0 -9.70367
20 3 30.4 1.6 1.6 -11.2885
21 3 32 0 0 -11.1865
22 1 33.6 1.6 1.6 -11.5369
23 1 35.2 0 0 -11.4518
24 2 36.8 1.6 1.6 -9.81349
25 2 38.4 0 0 -9.81922
26 2 40 1.6 1.6 -9.86037
27 1 41.6 0 0 -11.6938
28 1 43.2 1.6 1.6 -11.6471
29 1 44.8 0 0 -11.5388
30 1 46.4 1.6 1.6 -11.3826
31 1 48 0 0 -11.3699
32 2 49.6 1.6 1.6 -9.60213
33 2 0 3.2 0 -9.79085
34 2 1.6 4.8 1.6 -9.7494
35 1 3.2 3.2 0 -11.5156
36 1 4.8 4.8 1.6 -11.5283
37 2 6.4 3.2 0 -9.60618
38 1 8 4.8 1.6 -11.6028
39 2 9.6 3.2 0 -9.78417
40 1 11.2 4.8 1.6 -11.6172
41 2 12.8 3.2 0 -9.71186
42 2 14.4 4.8 1.6 -9.80535
43 2 16 3.2 0 -9.85082
44 3 17.6 4.8 1.6 -11.196
45 1 19.2 3.2 0 -11.4922
46 2 20.8 4.8 1.6 -9.77138
47 2 22.4 3.2 0 -9.46925
48 1 24 4.8 1.6 -11.6141
49 2 25.6 3.2 0 -9.6805
50 3 27.2 4.8 1.6 -11.1632
51 2 28.8 3.2 0 -9.78295
52 2 30.4 4.8 1.6 -9.79143
53 2 32 3.2 0 -9.79441
54 1 33.6 4.8 1.6 -11.7365
55 2 35.2 3.2 0 -9.83271
56 2 36.8 4.8 1.6 -9.80339
57 2 38.4 3.2 0 -9.90819
58 2 40 4.8 1.6 -9.86549
59 2 41.6 3.2 0 -9.96233
60 2 43.2 4.8 1.6 -9.84969
61 3 44.8 3.2 0 -11.1507
62 2 46.4 4.8 1.6 -9.74768
63 2 48 3.2 0 -9.77465
64 1 49.6 4.8 1.6 -11.7826
65 2 0 6.4 0 -9.86862
66 2 1.6 8 1.6 -9.88596
67 1 3.2 6.4 0 -11.6935
68 2 4.8 8 1.6 -9.89456
69 1 6.4 6.4 0 -11.5836
70 2 8 8 1.6 -9.77951
71 3 9.6 6.4 0 -11.0789
72 1 11.2 8 1.6 -11.7652
73 1 12.8 6.4 0 -11.4107
74 1 14.4 8 1.6 -11.6238
75 1 16 6.4 0 -11.5154
76 2 17.6 8 1.6 -9.86534
77 2 19.2 6.4 0 -9.7825
78 3 20.8 8 1.6 -11.4031
79 1 22.4 6.4 0 -11.601
80 1 24 8 1.6 -11.7863
81 3 25.6 6.4 0 -11.3148
82 2 27.2 8 1.6 -9.85028
83 3 28.8 6.4 0 -11.2859
84 1 30.4 8 1.6 -11.7186
85 3 32 6.4 0 -11.3417
86 1 33.6 8 1.6 -11.5869
87 1 35.2 6.4 0 -11.6363
88 1 36.8 8 1.6 -11.5174
89 2 38.4 6.4 0 -9.79192
90 1 40 8 1.6 -11.5071
91 2 41.6 6.4 0 -9.84444
92 1 43.2 8 1.6 -11.492
93 1 44.8 6.4 0 -11.7646
94 3 46.4 8 1.6 -11.1927
95 2 48 6.4 0 -9.86296
96 1 49.6 8 1.6 -11.7627
97 2 0 9.6 0 -9.88382
98 3 1.6 11.2 1.6 -11.4485
99 2 3.2 9.6 0 -9.8678
100 2 4.8 11.2 1.6 -9.82138
101 2 6.4 9.6 0 -9.79696
102 3 8 11.2 1.6 -11.3543
103 2 9.6 9.6 0 -9.87309
104 2 11.2 11.2 1.6 -9.85802
105 3 12.8 9.6 0 -11.0166
106 2 14.4 11.2 1.6 -9.69996
107 1 16 9.6 0 -11.5751
108 3 17.6 11.2 1.6 -11.3317
109 2 19.2 9.6 0 -9.92403
110 3 20.8 11.2 1.6 -11.4726
111 3 22.4 9.6 0 -11.3223
112 2 24 11.2 1.6 -9.91792
113 2 25.6 9.6 0 -9.89085
114 3 27.2 11.2 1.6 -11.3961
115 1 28.8 9.6 0 -11.8016
116 3 30.4 11.2 1.6 -11.284
117 3 32 9.6 0 -11.3026
118 3 33.6 11.2 1.6 -11.1014
119 2 35.2 9.6 0 -9.65964
120 1 36.8 11.2 1.6 -11.5277
121 1 38.4 9.6 0 -11.4512
122 1 40 11.2 1.6 -11.4798
123 1 41.6 9.6 0 -11.5131
124 2 43.2 11.2 1.6 -9.48192
125 1 44.8 9.6 0 -11.6327
126 2 46.4 11.2 1.6 -9.7668
127 1 48 9.6 0 -11.7751
128 3 49.6 11.2 1.6 -11.402
129 2 0 12.8 0 -9.96597
130 2 1.6 14.4 1.6 -9.97046
131 2 3.2 12.8 0 -9.88683
132 1 4.8 14.4 1.6 -11.6621
133 1 6.4 12.8 0 -11.6985
134 3 8 14.4 1.6 -11.3926
135 3 9.6 12.8 0 -11.242
136 1 11.2 14.4 1.6 -11.4838
137 1 12.8 12.8 0 -11.3159
138 1 14.4 14.4 1.6 -11.3481
139 1 16 12.8 0 -11.4209
140 1 17.6 14.4 1.6 -11.6948
141 2 19.2 12.8 0 -9.85672
142 3 20.8 14.4 1.6 -11.3733
143 2 22.4 12.8 0 -9.88942
144 2 24 14.4 1.6 -9.82916
145 2 25.6 12.8 0 -9.80697
146 3 27.2 14.4 1.6 -11.3621
147 3 28.8 12.8 0 -11.286
148 1 30.4 14.4 1.6 -11.7529
149 1 32 12.8 0 -11.7265
150 2 33.6 14.4 1.6 -9.7506
151 1 35.2 12.8 0 -11.6228
152 2 36.8 14.4 1.6 -9.72308
153 1 38.4 12.8 0 -11.5971
154 3 40 14.4 1.6 -11.3508
155 2 41.6 12.8 0 -9.84751
156 1 43.2 14.4 1.6 -11.6291
157 2 44.8 12.8 0 -9.4753
158 1 46.4 14.4 1.6 -11.4607
159 1 48 12.8 0 -11.6802
160 3 49.6 14.4 1.6 -11.4441
161 3 0 16 0 -11.3377
162 1 1.6 17.6 1.6 -11.6613
163 3 3.2 16 0 -11.4425
164 1 4.8 17.6 1.6 -11.7227
165 2 6.4 16 0 -9.91727
166 3 8 17.6 1.6 -11.3511
167 1 9.6 16 0 -11.5816
168 1 11.2 17.6 1.6 -11.4467
169 2 12.8 16 0 -9.23144
170 1 14.4 17.6 1.6 -11.5206
171 1 16 16 0 -11.4365
172 2 17.6 17.6 1.6 -9.85418
173 3 19.2 16 0 -11.3022
174 1 20.8 17.6 1.6 -11.7867
175 2 22.4 16 0 -9.71352
176 2 24 17.6 1.6 -9.74395
177 1 25.6 16 0 -11.617
178 2 27.2 17.6 1.6 -9.74173
179 2 28.8 16 0 -9.803
180 1 30.4 17.6 1.6 -11.669
181 2 32 16 0 -9.77252
182 2 33.6 17.6 1.6 -9.57385
183 1 35.2 16 0 -11.6125
184 2 36.8 17.6 1.6 -9.72654
185 2 38.4 16 0 -9.83045
186 2 40 17.6 1.6 -9.96827
187 3 41.6 16 0 -11.3791
188 3 43.2 17.6 1.6 -11.3893
189 1 44.8 16 0 -11.5782
190 2 46.4 17.6 1.6 -9.79813
191 1 48 16 0 -11.5425
192 3 49.6 17.6 1.6 -11.0725
193 1 0 19.2 0 -11.609
194 1 1.6 20.8 1.6 -11.3522
195 3 3.2 19.2 0 -11.1031
196 2 4.8 20.8 1.6 -9.78589
197 3 6.4 19.2 0 -11.4066
198 2 8 20.8 1.6 -9.88626
199 1 9.6 19.2 0 -11.5499
200 2 11.2 20.8 1.6 -9.70675
201 1 12.8 19.2 0 -11.4771
202 2 14.4 20.8 1.6 -9.7168
203 2 16 19.2 0 -9.78889
204 3 17.6 20.8 1.6 -11.3007
205 3 19.2 19.2 0 -11.4655
206 3 20.8 20.8 1.6 -11.2715
207 2 22.4 19.2 0 -9.70507
208 3 24 20.8 1.6 -11.1941
209 2 25.6 19.2 0 -9.79646
210 2 27.2 20.8 1.6 -9.87554
211 2 28.8 19.2 0 -9.8048
212 3 30.4 20.8 1.6 -11.2162
213 1 32 19.2 0 -11.6669
214 3 33.6 20.8 1.6 -11.1576
215 1 35.2 19.2 0 -11.4723
216 1 36.8 20.8 1.6 -11.5651
217 3 38.4 19.2 0 -11.1843
218 1 40 20.8 1.6 -11.6364
219 2 41.6 19.2 0 -9.86546
220 1 43.2 20.8 1.6 -11.5726
221 3 44.8 19.2 0 -11.2248
222 1 46.4 20.8 1.6 -11.5627
223 2 48 19.2 0 -9.64844
224 1 49.6 20.8 1.6 -11.4753
225 2 0 22.4 0 -9.62781
226 2 1.6 24 1.6 -9.70065
227 1 3.2 22.4 0 -11.5834
228 1 4.8 24 1.6 -11.4334
229 1 6.4 22.4 0 -11.5944
230 1 8 24 1.6 -11.4561
231 3 9.6 22.4 0 -11.0339
232 1 11.2 24 1.6 -11.6261
233 1 12.8 22.4 0 -11.5701
234 1 14.4 24 1.6 -11.4367
235 1 16 22.4 0 -11.6407
236 1 17.6 24 1.6 -11.5679
237 3 19.2 22.4 0 -11.3242
238 1 20.8 24 1.6 -11.5878
239 1 22.4 22.4 0 -11.6269
240 1 24 24 1.6 -11.4038
241 3 25.6 22.4 0 -11.2612
242 1 27.2 24 1.6 -11.6303
243 2 28.8 22.4 0 -9.90157
244 3 30.4 24 1.6 -11.4116
245 3 32 22.4 0 -11.3183
246 3 33.6 24 1.6 -11.4396
247 1 35.2 22.4 0 -11.6032
248 1 36.8 24 1.6 -11.6712
249 3 38.4 22.4 0 -11.0334
250 2 40 24 1.6 -9.61733
251 2 41.6 22.4 0 -9.44257
252 1 43.2 24 1.6 -11.4547
253 1 44.8 22.4 0 -11.4703
254 2 46.4 24 1.6 -9.71669
255 2 48 22.4 0 -9.73967
256 1 49.6 24 1.6 -11.6808
257 3 0 25.6 0 -11.3332
259 2 3.2 25.6 0 -9.79749
261 1 6.4 25.6 0 -11.5441
263 1 9.6 25.6 0 -11.6277
265 2 12.8 25.6 0 -9.67214
267 2 16 25.6 0 -9.65533
269 2 19.2 25.6 0 -9.88403
271 2 22.4 25.6 0 -9.72791
273 1 25.6 25.6 0 -11.6525
275 2 28.8 25.6 0 -9.74448
277 3 32 25.6 0 -11.5267
279 2 35.2 25.6 0 -9.84427
281 2 38.4 25.6 0 -9.91678
283 2 41.6 25.6 0 -9.6641
285 2 44.8 25.6 0 -9.56379
287 2 48 25.6 0 -9.89224
258 3 1.6 27.2 1.6 -11.4507
289 1 0 28.8 0 -11.8377
260 3 4.8 27.2 1.6 -11.3349
291 2 3.2 28.8 0 -9.99366
262 1 8 27.2 1.6 -11.585
293 3 6.4 28.8 0 -11.403
264 2 11.2 27.2 1.6 -9.61232
295 1 9.6 28.8 0 -11.6403
266 2 14.4 27.2 1.6 -9.68739
297 2 12.8 28.8 0 -9.78279
268 2 17.6 27.2 1.6 -9.68415
299 1 16 28.8 0 -11.4966
270 3 20.8 27.2 1.6 -11.2449
301 2 19.2 28.8 0 -9.71151
272 2 24 27.2 1.6 -9.74915
303 1 22.4 28.8 0 -11.8526
305 3 25.6 28.8 0 -11.1631
274 2 27.2 27.2 1.6 -9.62003
307 1 28.8 28.8 0 -11.7223
276 2 30.4 27.2 1.6 -9.93014
309 2 32 28.8 0 -9.84303
278 3 33.6 27.2 1.6 -11.4001
311 1 35.2 28.8 0 -11.8184
280 1 36.8 27.2 1.6 -11.7443
313 3 38.4 28.8 0 -11.1421
282 2 40 27.2 1.6 -9.73472
315 1 41.6 28.8 0 -11.361
284 1 43.2 27.2 1.6 -11.3757
317 2 44.8 28.8 0 -9.57816
286 2 46.4 27.2 1.6 -9.81307
319 1 48 28.8 0 -11.7477
288 3 49.6 27.2 1.6 -11.4148
290 1 1.6 30.4 1.6 -11.7963
321 2 0 32 0 -9.88042
292 2 4.8 30.4 1.6 -9.96324
323 3 3.2 32 0 -11.4138
294 2 8 30.4 1.6 -9.81503
325 2 6.4 32 0 -9.97019
296 2 11.2 30.4 1.6 -9.88631
327 2 9.6 32 0 -9.89116
298 1 14.4 30.4 1.6 -11.5343
329 2 12.8 32 0 -9.91181
300 1 17.6 30.4 1.6 -11.2961
331 1 16 32 0 -11.3638
302 1 20.8 30.4 1.6 -11.4714
333 2 19.2 32 0 -9.40665
304 3 24 30.4 1.6 -11.3848
335 1 22.4 32 0 -11.6183
337 3 25.6 32 0 -11.3631
306 2 27.2 30.4 1.6 -9.82757
339 3 28.8 32 0 -11.0881
308 3 30.4 30.4 1.6 -11.25
341 1 32 32 0 -11.5813
310 2 33.6 30.4 1.6 -9.8682
343 3 35.2 32 0 -11.1141
312 2 36.8 30.4 1.6 -9.92105
345 1 38.4 32 0 -11.735
314 2 40 30.4 1.6 -9.71628
347 1 41.6 32 0 -11.4819
316 1 43.2 30.4 1.6 -11.4197
349 1 44.8 32 0 -11.4414
318 1 46.4 30.4 1.6 -11.6695
351 1 48 32 0 -11.724
320 3 49.6 30.4 1.6 -11.244
322 2 1.6 33.6 1.6 -9.8297
353 2 0 35.2 0 -9.97055
324 1 4.8 33.6 1.6 -11.6911
355 3 3.2 35.2 0 -11.2268
326 1 8 33.6 1.6 -11.7708
357 2 6.4 35.2 0 -9.74158
328 3 11.2 33.6 1.6 -11.2973
359 2 9.6 35.2 0 -9.92276
330 1 14.4 33.6 1.6 -11.383
361 2 12.8 35.2 0 -9.66102
332 1 17.6 33.6 1.6 -11.3162
363 1 16 35.2 0 -11.3454
334 1 20.8 33.6 1.6 -11.5213
365 1 19.2 35.2 0 -11.5608
336 2 24 33.6 1.6 -9.87546
367 3 22.4 35.2 0 -11.1353
369 2 25.6 35.2 0 -9.66263
338 1 27.2 33.6 1.6 -11.7328
371 1 28.8 35.2 0 -11.5676
340 1 30.4 33.6 1.6 -11.6046
373 2 32 35.2 0 -9.76939
342 1 33.6 33.6 1.6 -11.7575
375 2 35.2 35.2 0 -9.89407
344 3 36.8 33.6 1.6 -11.426
377 3 38.4 35.2 0 -11.3097
346 2 40 33.6 1.6 -9.94812
379 2 41.6 35.2 0 -9.88632
348 2 43.2 33.6 1.6 -9.75357
381 1 44.8 35.2 0 -11.5629
350 2 46.4 33.6 1.6 -9.70112
383 2 48 35.2 0 -9.79691
352 3 49.6 33.6 1.6 -11.3435
354 2 1.6 36.8 1.6 -9.74695
385 3 0 38.4 0 -11.2442
356 1 4.8 36.8 1.6 -11.4341
387 1 3.2 38.4 0 -11.4643
358 1 8 36.8 1.6 -11.665
389 1 6.4 38.4 0 -11.4956
360 2 11.2 36.8 1.6 -9.67617
391 2 9.6 38.4 0 -9.68798
362 1 14.4 36.8 1.6 -11.4447
393 1 12.8 38.4 0 -11.4569
364 3 17.6 36.8 1.6 -10.8662
395 1 16 38.4 0 -11.4318
366 1 20.8 36.8 1.6 -11.6906
397 3 19.2 38.4 0 -11.1714
368 2 24 36.8 1.6 -9.75998
399 2 22.4 38.4 0 -9.80381
401 1 25.6 38.4 0 -11.4668
370 1 27.2 36.8 1.6 -11.4998
403 1 28.8 38.4 0 -11.5599
372 3 30.4 36.8 1.6 -11.2549
405 2 32 38.4 0 -9.91573
374 3 33.6 36.8 1.6 -11.4642
407 1 35.2 38.4 0 -11.7971
376 3 36.8 36.8 1.6 -11.3898
409 1 38.4 38.4 0 -11.6104
378 2 40 36.8 1.6 -9.9142
411 2 41.6 38.4 0 -9.77305
380 1 43.2 36.8 1.6 -11.6717
413 1 44.8 38.4 0 -11.5636
382 2 46.4 36.8 1.6 -9.78302
415 2 48 38.4 0 -9.80905
384 2 49.6 36.8 1.6 -9.92922
386 2 1.6 40 1.6 -9.63686
417 1 0 41.6 0 -11.6025
388 1 4.8 40 1.6 -11.5321
419 1 3.2 41.6 0 -11.4731
390 2 8 40 1.6 -9.73721
421 3 6.4 41.6 0 -11.0279
392 1 11.2 40 1.6 -11.6246
423 2 9.6 41.6 0 -9.84329
394 1 14.4 40 1.6 -11.4521
425 2 12.8 41.6 0 -9.64156
396 1 17.6 40 1.6 -11.6221
427 1 16 41.6 0 -11.5004
398 1 20.8 40 1.6 -11.4733
429 1 19.2 41.6 0 -11.5579
400 2 24 40 1.6 -9.66323
431 1 22.4 41.6 0 -11.4284
433 1 25.6 41.6 0 -11.4545
402 3 27.2 40 1.6 -10.8378
435 1 28.8 41.6 0 -11.418
404 2 30.4 40 1.6 -9.85708
437 1 32 41.6 0 -11.6955
406 2 33.6 40 1.6 -9.88784
439 2 35.2 41.6 0 -9.63558
408 1 36.8 40 1.6 -11.6647
441 1 38.4 41.6 0 -11.5967
410 2 40 40 1.6 -9.79987
443 3 41.6 41.6 0 -11.2231
412 1 43.2 40 1.6 -11.6106
445 1 44.8 41.6 0 -11.5421
414 2 46.4 40 1.6 -9.60635
447 1 48 41.6 0 -11.5528
416 3 49.6 40 1.6 -11.3636
418 1 1.6 43.2 1.6 -11.486
449 2 0 44.8 0 -9.70773
420 2 4.8 43.2 1.6 -9.76009
451 3 3.2 44.8 0 -11.0971
422 2 8 43.2 1.6 -9.92185
453 1 6.4 44.8 0 -11.7632
424 2 11.2 43.2 1.6 -9.6255
455 2 9.6 44.8 0 -9.72925
426 1 14.4 43.2 1.6 -11.5678
457 2 12.8 44.8 0 -9.77059
428 3 17.6 43.2 1.6 -11.1094
459 3 16 44.8 0 -11.0176
430 2 20.8 43.2 1.6 -9.67317
461 2 19.2 44.8 0 -9.65646
432 2 24 43.2 1.6 -9.47785
463 1 22.4 44.8 0 -11.5538
465 1 25.6 44.8 0 -11.3969
434 1 27.2 43.2 1.6 -11.3851
467 1 28.8 44.8 0 -11.5262
436 1 30.4 43.2 1.6 -11.4795
469 3 32 44.8 0 -11.104
438 1 33.6 43.2 1.6 -11.6149
471 1 35.2 44.8 0 -11.6281
440 1 36.8 43.2 1.6 -11.6425
473 2 38.4 44.8 0 -9.70814
442 2 40 43.2 1.6 -9.82836
475 1 41.6 44.8 0 -11.6204
444 2 43.2 43.2 1.6 -9.71409
477 1 44.8 44.8 0 -11.6362
446 1 46.4 43.2 1.6 -11.453
479 1 48 44.8 0 -11.6546
448 1 49.6 43.2 1.6 -11.5337
450 1 1.6 46.4 1.6 -11.7307
481 2 0 48 0 -9.97794
452 2 4.8 46.4 1.6 -9.82881
483 3 3.2 48 0 -11.2874
454 2 8 46.4 1.6 -9.77602
485 3 6.4 48 0 -11.125
456 1 11.2 46.4 1.6 -11.5406
487 1 9.6 48 0 -11.6785
458 2 14.4 46.4 1.6 -9.6759
489 1 12.8 48 0 -11.4105
460 1 17.6 46.4 1.6 -11.6877
491 2 16 48 0 -9.71952
462 2 20.8 46.4 1.6 -9.68116
493 1 19.2 48 0 -11.5347
464 1 24 46.4 1.6 -11.6398
495 2 22.4 48 0 -9.68086
497 2 25.6 48 0 -9.58879
466 3 27.2 46.4 1.6 -11.011
499 2 28.8 48 0 -9.80037
468 3 30.4 46.4 1.6 -11.3882
501 2 32 48 0 -9.89573
470 3 33.6 46.4 1.6 -11.2024
503 1 35.2 48 0 -11.5318
472 3 36.8 46.4 1.6 -11.2616
505 3 38.4 48 0 -11.2671
474 2 40 46.4 1.6 -9.77217
507 1 41.6 48 0 -11.6493
476 1 43.2 46.4 1.6 -11.6677
509 3 44.8 48 0 -11.2363
478 2 46.4 46.4 1.6 -9.81299
511 2 48 48 0 -9.80217
480 3 49.6 46.4 1.6 -11.3165
482 1 1.6 49.6 1.6 -11.6291
484 1 4.8 49.6 1.6 -11.6291
486 2 8 49.6 1.6 -9.71862
488 1 11.2 49.6 1.6 -11.4068
490 1 14.4 49.6 1.6 -11.4935
492 2 17.6 49.6 1.6 -9.60808
494 1 20.8 49.6 1.6 -11.5906
496 2 24 49.6 1.6 -9.47233
498 1 27.2 49.6 1.6 -11.6743
500 3 30.4 49.6 1.6 -11.4195
502 1 33.6 49.6 1.6 -11.4969
504 1 36.8 49.6 1.6 -11.5644
506 2 40 49.6 1.6 -9.78356
508 2 43.2 49.6 1.6 -9.72965
510 1 46.4 49.6 1.6 -11.5649
512 2 49.6 49.6 1.6 -9.7718
513 1 0 0 3.2 -11.6196
514 2 1.6 1.6 4.8 -9.56011
515 1 3.2 0 3.2 -11.5124
516 1 4.8 1.6 4.8 -11.6417
517 3 6.4 0 3.2 -11.0272
518 2 8 1.6 4.8 -9.52777
519 1 9.6 0 3.2 -11.5416
520 2 11.2 1.6 4.8 -9.74401
521 2 12.8 0 3.2 -9.71628
522 2 14.4 1.6 4.8 -9.92906
523 1 16 0 3.2 -11.7426
524 3 17.6 1.6 4.8 -11.2646
525 3 19.2 0 3.2 -11.1418
526 2 20.8 1.6 4.8 -9.94041
527 2 22.4 0 3.2 -9.78615
528 2 24 1.6 4.8 -9.73494
529 3 25.6 0 3.2 -11.0204
530 2 27.2 1.6 4.8 -9.73842
531 3 28.8 0 3.2 -11.299
532 2 30.4 1.6 4.8 -9.84447
533 1 32 0 3.2 -11.504
534 1 33.6 1.6 4.8 -11.5466
535 1 35.2 0 3.2 -11.3707
536 2 36.8 1.6 4.8 -9.67683
537 2 38.4 0 3.2 -9.62919
538 1 40 1.6 4.8 -11.443
539 2 41.6 0 3.2 -9.76755
540 2 43.2 1.6 4.8 -9.67601
541 2 44.8 0 3.2 -9.59053
542 1 46.4 1.6 4.8 -11.3789
543 1 48 0 3.2 -11.4585
544 2 49.6 1.6 4.8 -9.68422
545 2 0 3.2 3.2 -9.79347
546 1 1.6 4.8 4.8 -11.7819
547 2 3.2 3.2 3.2 -9.68144
548 1 4.8 4.8 4.8 -11.6477
549 2 6.4 3.2 3.2 -9.59944
550 1 8 4.8 4.8 -11.6091
551 1 9.6 3.2 3.2 -11.4447
552 2 11.2 4.8 4.8 -9.86418
553 2 12.8 3.2 3.2 -9.89117
554 2 14.4 4.8 4.8 -9.92227
555 2 16 3.2 3.2 -9.8135
556 1 17.6 4.8 4.8 -11.6037
557 1 19.2 3.2 3.2 -11.671
558 2 20.8 4.8 4.8 -9.79267
559 2 22.4 3.2 3.2 -9.7372
560 1 24 4.8 4.8 -11.5391
561 1 25.6 3.2 3.2 -11.4773
562 1 27.2 4.8 4.8 -11.4672
563 1 28.8 3.2 3.2 -11.6137
564 1 30.4 4.8 4.8 -11.5774
565 2 32 3.2 3.2 -9.69938
566 1 33.6 4.8 4.8 -11.619
567 3 35.2 3.2 3.2 -11.1514
568 1 36.8 4.8 4.8 -11.5233
569 1 38.4 3.2 3.2 -11.6118
570 1 40 4.8 4.8 -11.5266
571 3 41.6 3.2 3.2 -11.1371
572 1 43.2 4.8 4.8 -11.7651
573 1 44.8 3.2 3.2 -11.5427
574 1 46.4 4.8 4.8 -11.6572
575 1 48 3.2 3.2 -11.477
576 3 49.6 4.8 4.8 -11.1453
577 2 0 6.4 3.2 -9.85376
578 1 1.6 8 4.8 -11.6545
579 3 3.2 6.4 3.2 -11.2116
580 3 4.8 8 4.8 -11.297
581 2 6.4 6.4 3.2 -9.80448
582 1 8 8 4.8 -11.7124
583 3 9.6 6.4 3.2 -11.218
584 3 11.2 8 4.8 -11.4412
585 3 12.8 6.4 3.2 -11.3772
586 3 14.4 8 4.8 -11.3941
587 2 16 6.4 3.2 -9.89067
588 1 17.6 8 4.8 -11.5529
589 2 19.2 6.4 3.2 -9.803
590 2 20.8 8 4.8 -9.64109
591 3 22.4 6.4 3.2 -11.1565
592 1 24 8 4.8 -11.6394
593 2 25.6 6.4 3.2 -9.66276
594 1 27.2 8 4.8 -11.5446
595 1 28.8 6.4 3.2 -11.5742
596 2 30.4 8 4.8 -9.67277
597 2 32 6.4 3.2 -9.64218
598 1 33.6 8 4.8 -11.4432
599 3 35.2 6.4 3.2 -10.9869
600 3 36.8 8 4.8 -10.9079
601 2 38.4 6.4 3.2 -9.77369
602 2 40 8 4.8 -9.80845
603 2 41.6 6.4 3.2 -9.76171
604 1 43.2 8 4.8 -11.6113
605 3 44.8 6.4 3.2 -11.1686
606 2 46.4 8 4.8 -9.82282
607 3 48 6.4 3.2 -11.3077
608 1 49.6 8 4.8 -11.7157
609 2 0 9.6 3.2 -9.81549
610 3 1.6 11.2 4.8 -11.2904
611 1 3.2 9.6 3.2 -11.8088
612 2 4.8 11.2 4.8 -9.76146
613 2 6.4 9.6 3.2 -9.82554
614 1 8 11.2 4.8 -11.6579
615 1 9.6 9.6 3.2 -11.7103
616 3 11.2 11.2 4.8 -11.2299
617 3 12.8 9.6 3.2 -11.354
618 1 14.4 11.2 4.8 -11.8045
619 2 16 9.6 3.2 -9.86762
620 2 17.6 11.2 4.8 -9.83505
621 1 19.2 9.6 3.2 -11.7971
622 3 20.8 11.2 4.8 -11.2346
623 2 22.4 9.6 3.2 -9.85144
624 2 24 11.2 4.8 -9.76165
625 2 25.6 9.6 3.2 -9.83251
626 1 27.2 11.2 4.8 -11.7048
627 2 28.8 9.6 3.2 -9.6827
628 2 30.4 11.2 4.8 -9.71142
629 1 32 9.6 3.2 -11.5528
630 1 33.6 11.2 4.8 -11.3467
631 1 35.2 9.6 3.2 -11.46
632 1 36.8 11.2 4.8 -11.4884
633 2 38.4 9.6 3.2 -9.58218
634 2 40 11.2 4.8 -9.76451
635 1 41.6 9.6 3.2 -11.3981
636 1 43.2 11.2 4.8 -11.4367
637 1 44.8 9.6 3.2 -11.538
638 2 46.4 11.2 4.8 -9.75779
639 2 48 9.6 3.2 -9.87622
640 2 49.6 11.2 4.8 -9.97822
641 3 0 12.8 3.2 -11.5629
642 3 1.6 14.4 4.8 -11.3787
643 2 3.2 12.8 3.2 -9.80431
644 1 4.8 14.4 4.8 -11.6428
645 1 6.4 12.8 3.2 -11.6432
646 3 8 14.4 4.8 -11.2149
647 3 9.6 12.8 3.2 -11.3295
648 2 11.2 14.4 4.8 -9.91136
649 1 12.8 12.8 3.2 -11.6455
650 3 14.4 14.4 4.8 -11.1334
651 3 16 12.8 3.2 -11.2147
652 3 17.6 14.4 4.8 -11.2881
653 2 19.2 12.8 3.2 -9.91411
654 2 20.8 14.4 4.8 -9.7363
655 1 22.4 12.8 3.2 -11.734
656 1 24 14.4 4.8 -11.5795
657 2 25.6 12.8 3.2 -9.91079
658 2 27.2 14.4 4.8 -9.89652
659 2 28.8 12.8 3.2 -9.94716
660 3 30.4 14.4 4.8 -11.2577
661 1 32 12.8 3.2 -11.6439
662 1 33.6 14.4 4.8 -11.411
663 3 35.2 12.8 3.2 -10.8261
664 1 36.8 14.4 4.8 -11.4116
665 2 38.4 12.8 3.2 -9.78738
666 2 40 14.4 4.8 -9.91079
667 2 41.6 12.8 3.2 -9.7234
668 1 43.2 14.4 4.8 -11.57
669 1 44.8 12.8 3.2 -11.4123
670 1 46.4 14.4 4.8 -11.5879
671 2 48 12.8 3.2 -9.86708
672 2 49.6 14.4 4.8 -9.91592
673 3 0 16 3.2 -11.4471
674 2 1.6 17.6 4.8 -9.51695
675 2 3.2 16 3.2 -9.76562
676 1 4.8 17.6 4.8 -11.682
677 2 6.4 16 3.2 -9.82675
678 2 8 17.6 4.8 -9.92468
679 2 9.6 16 3.2 -9.81789
680 2 11.2 17.6 4.8 -9.85301
681 1 12.8 16 3.2 -11.5461
682 2 14.4 17.6 4.8 -9.89904
683 2 16 16 3.2 -9.72532
684 2 17.6 17.6 4.8 -9.88904
685 3 19.2 16 3.2 -11.3573
686 1 20.8 17.6 4.8 -11.6453
687 1 22.4 16 3.2 -11.5791
688 1 24 17.6 4.8 -11.5006
689 2 25.6 16 3.2 -9.70383
690 1 27.2 17.6 4.8 -11.4821
691 2 28.8 16 3.2 -9.83266
692 2 30.4 17.6 4.8 -9.68983
693 3 32 16 3.2 -11.1304
694 1 33.6 17.6 4.8 -11.5493
695 1 35.2 16 3.2 -11.4892
696 1 36.8 17.6 4.8 -11.5563
697 3 38.4 16 3.2 -11.3637
698 3 40 17.6 4.8 -11.4405
699 2 41.6 16 3.2 -9.97722
700 2 43.2 17.6 4.8 -9.94501
701 2 44.8 16 3.2 -9.67627
702 1 46.4 17.6 4.8 -11.6011
703 2 48 16 3.2 -9.70996
704 1 49.6 17.6 4.8 -11.5777
705 1 0 19.2 3.2 -11.3189
706 1 1.6 20.8 4.8 -11.4558
707 1 3.2 19.2 3.2 -11.4673
708 3 4.8 20.8 4.8 -11.1696
709 2 6.4 19.2 3.2 -9.9329
710 2 8 20.8 4.8 -9.95364
711 2 9.6 19.2 3.2 -9.87908
712 3 11.2 20.8 4.8 -11.4704
713 2 12.8 19.2 3.2 -9.77342
714 3 14.4 20.8 4.8 -11.2618
715 1 16 19.2 3.2 -11.7282
716 1 17.6 20.8 4.8 -11.6753
717 2 19.2 19.2 3.2 -9.9094
718 1 20.8 20.8 4.8 -11.5384
719 2 22.4 19.2 3.2 -9.5297
720 1 24 20.8 4.8 -11.3988
721 1 25.6 19.2 3.2 -11.6184
722 2 27.2 20.8 4.8 -9.62543
723 1 28.8 19.2 3.2 -11.5157
724 1 30.4 20.8 4.8 -11.5974
725 1 32 19.2 3.2 -11.636
726 2 33.6 20.8 4.8 -9.83129
727 1 35.2 19.2 3.2 -11.5677
728 3 36.8 20.8 4.8 -10.9694
729 2 38.4 19.2 3.2 -9.80274
730 2 40 20.8 4.8 -9.64647
731 2 41.6 19.2 3.2 -9.89596
732 2 43.2 20.8 4.8 -9.77442
733 2 44.8 19.2 3.2 -9.79909
734 1 46.4 20.8 4.8 -11.5308
735 1 48 19.2 3.2 -11.5022
736 2 49.6 20.8 4.8 -9.47877
737 1 0 22.4 3.2 -11.4781
738 2 1.6 24 4.8 -9.81656
739 2 3.2 22.4 3.2 -9.64463
740 1 4.8 24 4.8 -11.7179
741 2 6.4 22.4 3.2 -9.69293
742 2 8 24 4.8 -9.84907
743 1 9.6 22.4 3.2 -11.7551
744 2 11.2 24 4.8 -9.8158
745 2 12.8 22.4 3.2 -9.67454
746 3 14.4 24 4.8 -10.9926
747 1 16 22.4 3.2 -11.5038
748 1 17.6 24 4.8 -11.4043
749 3 19.2 22.4 3.2 -11.0892
750 1 20.8 24 4.8 -11.4047
751 1 22.4 22.4 3.2 -11.3434
752 1 24 24 4.8 -11.2119
753 2 25.6 22.4 3.2 -9.64477
754 2 27.2 24 4.8 -9.71535
755 1 28.8 22.4 3.2 -11.7037
756 2 30.4 24 4.8 -9.84183
757 2 32 22.4 3.2 -9.87649
758 1 33.6 24 4.8 -11.6599
759 2 35.2 22.4 3.2 -9.71714
760 1 36.8 24 4.8 -11.5632
761 1 38.4 22.4 3.2 -11.5036
762 1 40 24 4.8 -11.4135
763 1 41.6 22.4 3.2 -11.4478
764 2 43.2 24 4.8 -9.3212
765 2 44.8 22.4 3.2 -9.50679
766 1 46.4 24 4.8 -11.6188
767 2 48 22.4 3.2 -9.67067
768 2 49.6 24 4.8 -9.84069
769 1 0 25.6 3.2 -11.7932
771 1 3.2 25.6 3.2 -11.7121
773 1 6.4 25.6 3.2 -11.5679
775 3 9.6 25.6 3.2 -10.9123
777 1 12.8 25.6 3.2 -11.6076
779 1 16 25.6 3.2 -11.4954
781 2 19.2 25.6 3.2 -9.63745
783 1 22.4 25.6 3.2 -11.3387
785 1 25.6 25.6 3.2 -11.3572
787 2 28.8 25.6 3.2 -9.75886
789 2 32 25.6 3.2 -9.90284
791 2 35.2 25.6 3.2 -9.78239
793 3 38.4 25.6 3.2 -11.0596
795 1 41.6 25.6 3.2 -11.309
797 1 44.8 25.6 3.2 -11.4955
799 3 48 25.6 3.2 -11.3195
770 3 1.6 27.2 4.8 -11.4146
801 2 0 28.8 3.2 -9.92435
772 3 4.8 27.2 4.8 -11.3716
803 3 3.2 28.8 3.2 -11.4535
774 2 8 27.2 4.8 -9.83272
805 3 6.4 28.8 3.2 -11.4674
776 1 11.2 27.2 4.8 -11.5008
807 1 9.6 28.8 3.2 -11.6694
778 3 14.4 27.2 4.8 -10.9494
809 1 12.8 28.8 3.2 -11.6542
780 1 17.6 27.2 4.8 -11.5917
811 2 16 28.8 3.2 -9.53066
782 2 20.8 27.2 4.8 -9.74061
813 1 19.2 28.8 3.2 -11.5701
784 1 24 27.2 4.8 -11.4199
815 2 22.4 28.8 3.2 -9.72736
817 1 25.6 28.8 3.2 -11.5991
786 1 27.2 27.2 4.8 -11.4663
819 1 28.8 28.8 3.2 -11.6116
788 1 30.4 27.2 4.8 -11.6417
821 2 32 28.8 3.2 -9.78355
790 2 33.6 27.2 4.8 -9.71226
823 1 35.2 28.8 3.2 -11.734
792 2 36.8 27.2 4.8 -9.85472
825 2 38.4 28.8 3.2 -9.90997
794 1 40 27.2 4.8 -11.5807
827 1 41.6 28.8 3.2 -11.4628
796 1 43.2 27.2 4.8 -11.3407
829 2 44.8 28.8 3.2 -9.67876
798 2 46.4 27.2 4.8 -9.72669
831 3 48 28.8 3.2 -11.4602
800 2 49.6 27.2 4.8 -9.98398
802 2 1.6 30.4 4.8 -9.8611
833 1 0 32 3.2 -11.7
804 2 4.8 30.4 4.8 -10.0243
835 3 3.2 32 3.2 -11.3398
806 2 8 30.4 4.8 -9.89477
837 3 6.4 32 3.2 -11.4099
808 3 11.2 30.4 4.8 -11.1239
839 3 9.6 32 3.2 -11.4142
810 2 14.4 30.4 4.8 -9.82471
841 3 12.8 32 3.2 -11.2226
812 2 17.6 30.4 4.8 -9.7039
843 1 16 32 3.2 -11.3727
814 1 20.8 30.4 4.8 -11.6989
845 1 19.2 32 3.2 -11.4179
816 3 24 30.4 4.8 -11.2872
847 2 22.4 32 3.2 -9.80244
849 2 25.6 32 3.2 -9.91019
818 2 27.2 30.4 4.8 -9.75785
851 1 28.8 32 3.2 -11.6621
820 2 30.4 30.4 4.8 -9.72247
853 2 32 32 3.2 -9.76127
822 1 33.6 30.4 4.8 -11.7872
855 3 35.2 32 3.2 -11.4365
824 3 36.8 30.4 4.8 -11.333
857 2 38.4 32 3.2 -9.93024
826 2 40 30.4 4.8 -9.90884
859 2 41.6 32 3.2 -9.87293
828 2 43.2 30.4 4.8 -9.84977
861 2 44.8 32 3.2 -9.8375
830 3 46.4 30.4 4.8 -11.384
863 2 48 32 3.2 -9.87742
832 2 49.6 30.4 4.8 -9.92642
834 1 1.6 33.6 4.8 -11.6411
865 2 0 35.2 3.2 -9.75368
836 2 4.8 33.6 4.8 -9.68859
867 1 3.2 35.2 3.2 -11.548
838 2 8 33.6 4.8 -9.80538
869 1 6.4 35.2 3.2 -11.5513
840 1 11.2 33.6 4.8 -11.693
871 3 9.6 35.2 3.2 -11.1216
842 1 14.4 33.6 4.8 -11.6745
873 2 12.8 35.2 3.2 -9.73762
844 2 17.6 33.6 4.8 -9.73408
875 1 16 35.2 3.2 -11.4286
846 2 20.8 33.6 4.8 -9.85419
877 2 19.2 35.2 3.2 -9.65015
848 2 24 33.6 4.8 -10.0043
879 3 22.4 35.2 3.2 -11.3282
881 2 25.6 35.2 3.2 -9.94557
850 3 27.2 33.6 4.8 -11.3344
883 3 28.8 35.2 3.2 -11.0547
852 1 30.4 33.6 4.8 -11.6299
885 2 32 35.2 3.2 -9.88923
854 2 33.6 33.6 4.8 -9.81085
887 3 35.2 35.2 3.2 -11.4665
856 2 36.8 33.6 4.8 -9.97717
889 2 38.4 35.2 3.2 -10.0278
858 2 40 33.6 4.8 -9.98379
891 3 41.6 35.2 3.2 -11.4088
860 3 43.2 33.6 4.8 -11.5234
893 1 44.8 35.2 3.2 -11.7637
862 3 46.4 33.6 4.8 -11.3722
895 1 48 35.2 3.2 -11.7774
864 1 49.6 33.6 4.8 -11.7134
866 2 1.6 36.8 4.8 -9.61622
897 1 0 38.4 3.2 -11.7273
868 2 4.8 36.8 4.8 -9.68525
899 1 3.2 38.4 3.2 -11.5282
870 2 8 36.8 4.8 -9.67562
901 3 6.4 38.4 3.2 -11.06
872 1 11.2 36.8 4.8 -11.5215
903 1 9.6 38.4 3.2 -11.575
874 1 14.4 36.8 4.8 -11.4737
905 2 12.8 38.4 3.2 -9.45404
876 1 17.6 36.8 4.8 -11.5419
907 3 16 38.4 3.2 -10.8503
878 1 20.8 36.8 4.8 -11.5714
909 2 19.2 38.4 3.2 -9.57269
880 3 24 36.8 4.8 -11.3603
911 1 22.4 38.4 3.2 -11.5629
913 1 25.6 38.4 3.2 -11.6603
882 2 27.2 36.8 4.8 -9.72118
915 1 28.8 38.4 3.2 -11.7027
884 1 30.4 36.8 4.8 -11.6608
917 3 32 38.4 3.2 -11.3573
886 1 33.6 36.8 4.8 -11.7125
919 3 35.2 38.4 3.2 -11.3298
888 1 36.8 36.8 4.8 -11.7014
921 2 38.4 38.4 3.2 -9.8639
890 3 40 36.8 4.8 -11.3104
923 2 41.6 38.4 3.2 -9.88106
892 2 43.2 36.8 4.8 -9.9095
925 3 44.8 38.4 3.2 -11.0884
894 2 46.4 36.8 4.8 -9.92276
927 2 48 38.4 3.2 -9.90366
896 2 49.6 36.8 4.8 -9.82062
898 1 1.6 40 4.8 -11.6263
929 2 0 41.6 3.2 -9.77525
900 2 4.8 40 4.8 -9.73824
931 2 3.2 41.6 3.2 -9.68924
902 2 8 40 4.8 -9.79596
933 2 6.4 41.6 3.2 -9.90538
904 1 11.2 40 4.8 -11.4003
935 2 9.6 41.6 3.2 -9.68969
906 1 14.4 40 4.8 -11.528
937 2 12.8 41.6 3.2 -9.5627
908 1 17.6 40 4.8 -11.5054
939 2 16 41.6 3.2 -9.63312
910 1 20.8 40 4.8 -11.4269
941 2 19.2 41.6 3.2 -9.67777
912 3 24 40 4.8 -11.1157
943 1 22.4 41.6 3.2 -11.4943
945 1 25.6 41.6 3.2 -11.6699
914 2 27.2 40 4.8 -9.81874
947 3 28.8 41.6 3.2 -10.9929
916 2 30.4 40 4.8 -9.766
949 2 32 41.6 3.2 -9.84868
918 3 33.6 40 4.8 -11.3084
951 3 35.2 41.6 3.2 -11.2716
920 1 36.8 40 4.8 -11.7334
953 3 38.4 41.6 3.2 -11.2595
922 1 40 40 4.8 -11.7438
955 2 41.6 41.6 3.2 -9.85865
924 1 43.2 40 4.8 -11.7244
957 1 44.8 41.6 3.2 -11.5197
926 1 46.4 40 4.8 -11.6767
959 2 48 41.6 3.2 -9.67376
928 3 49.6 40 4.8 -11.2362
930 3 1.6 43.2 4.8 -11.049
961 1 0 44.8 3.2 -11.6433
932 1 4.8 43.2 4.8 -11.6158
963 1 3.2 44.8 3.2 -11.6533
934 2 8 43.2 4.8 -9.64665
965 2 6.4 44.8 3.2 -9.66565
936 1 11.2 43.2 4.8 -11.4669
967 1 9.6 44.8 3.2 -11.5494
938 1 14.4 43.2 4.8 -11.5788
969 1 12.8 44.8 3.2 -11.4093
940 2 17.6 43.2 4.8 -9.80103
971 1 16 44.8 3.2 -11.5905
942 1 20.8 43.2 4.8 -11.6263
973 3 19.2 44.8 3.2 -11.3227
944 2 24 43.2 4.8 -9.76133
975 2 22.4 44.8 3.2 -9.8289
977 2 25.6 44.8 3.2 -9.68952
946 1 27.2 43.2 4.8 -11.5734
979 1 28.8 44.8 3.2 -11.5096
948 1 30.4 43.2 4.8 -11.6173
981 1 32 44.8 3.2 -11.6662
950 3 33.6 43.2 4.8 -11.237
983 1 35.2 44.8 3.2 -11.6529
952 2 36.8 43.2 4.8 -9.72282
985 3 38.4 44.8 3.2 -11.3534
954 1 40 43.2 4.8 -11.8453
987 3 41.6 44.8 3.2 -11.1913
956 3 43.2 43.2 4.8 -11.0721
989 2 44.8 44.8 3.2 -9.78574
958 1 46.4 43.2 4.8 -11.545
991 2 48 44.8 3.2 -9.73503
960 2 49.6 43.2 4.8 -9.73598
962 2 1.6 46.4 4.8 -9.89106
993 3 0 48 3.2 -11.341
964 3 4.8 46.4 4.8 -11.1677
995 3 3.2 48 3.2 -11.2621
966 1 8 46.4 4.8 -11.4426
997 1 6.4 48 3.2 -11.7168
968 1 11.2 46.4 4.8 -11.4844
999 3 9.6 48 3.2 -10.7856
970 2 14.4 46.4 4.8 -9.64
1001 2 12.8 48 3.2 -9.72771
972 1 17.6 46.4 4.8 -11.6619
1003 2 16 48 3.2 -9.71132
974 3 20.8 46.4 4.8 -11.2676
1005 2 19.2 48 3.2 -9.7998
976 3 24 46.4 4.8 -11.1511
1007 1 22.4 48 3.2 -11.6256
1009 1 25.6 48 3.2 -11.5855
978 2 27.2 46.4 4.8 -9.71468
1011 2 28.8 48 3.2 -9.81735
980 2 30.4 46.4 4.8 -9.81154
1013 2 32 48 3.2 -9.88109
982 2 33.6 46.4 4.8 -9.80736
1015 3 35.2 48 3.2 -11.0466
984 1 36.8 46.4 4.8 -11.7257
1017 2 38.4 48 3.2 -9.7951
986 1 40 46.4 4.8 -11.6783
1019 1 41.6 48 3.2 -11.6712
988 2 43.2 46.4 4.8 -9.88686
1021 3 44.8 48 3.2 -11.3818
990 2 46.4 46.4 4.8 -9.88396
1023 2 48 48 3.2 -9.95317
992 3 49.6 46.4 4.8 -11.3898
994 2 1.6 49.6 4.8 -9.76083
996 3 4.8 49.6 4.8 -11.1652
998 1 8 49.6 4.8 -11.5444
1000 2 11.2 49.6 4.8 -9.74789
1002 2 14.4 49.6 4.8 -9.9009
1004 2 17.6 49.6 4.8 -9.8205
1006 2 20.8 49.6 4.8 -9.84356
1008 1 24 49.6 4.8 -11.5569
1010 1 27.2 49.6 4.8 -11.5432
1012 2 30.4 49.6 4.8 -9.75359
1014 1 33.6 49.6 4.8 -11.4728
1016 1 36.8 49.6 4.8 -11.5425
1018 1 40 49.6 4.8 -11.5145
1020 3 43.2 49.6 4.8 -11.3588
1022 2 46.4 49.6 4.8 -9.81068
1024 2 49.6 49.6 4.8 -9.86266
1025 1 0 0 6.4 -11.6296
1026 1 1.6 1.6 8 -11.6087
1027 1 3.2 0 6.4 -11.5265
1028 2 4.8 1.6 8 -9.72368
1029 2 6.4 0 6.4 -9.70273
1030 2 8 1.6 8 -9.79826
1031 1 9.6 0 6.4 -11.66
1032 2 11.2 1.6 8 -9.67441
1033 2 12.8 0 6.4 -9.89981
1034 1 14.4 1.6 8 -11.6759
1035 3 16 0 6.4 -11.2499
1036 2 17.6 1.6 8 -9.80727
1037 2 19.2 0 6.4 -9.98264
1038 2 20.8 1.6 8 -9.93717
1039 3 22.4 0 6.4 -11.291
1040 1 24 1.6 8 -11.7779
1041 2 25.6 0 6.4 -9.70175
1042 2 27.2 1.6 8 -9.86363
1043 2 28.8 0 6.4 -9.72864
1044 3 30.4 1.6 8 -11.1493
1045 1 32 0 6.4 -11.5046
1046 2 33.6 1.6 8 -9.70664
1047 2 35.2 0 6.4 -9.55334
1048 3 36.8 1.6 8 -10.9129
1049 1 38.4 0 6.4 -11.2991
1050 1 40 1.6 8 -11.4351
1051 1 41.6 0 6.4 -11.477
1052 1 43.2 1.6 8 -11.6437
1053 1 44.8 0 6.4 -11.7172
1054 2 46.4 1.6 8 -9.77204
1055 1 48 0 6.4 -11.6359
1056 3 49.6 1.6 8 -11.306
1057 2 0 3.2 6.4 -9.83025
1058 1 1.6 4.8 8 -11.7485
1059 2 3.2 3.2 6.4 -9.64202
1060 1 4.8 4.8 8 -11.7384
1061 1 6.4 3.2 6.4 -11.5817
1062 2 8 4.8 8 -9.62054
1063 1 9.6 3.2 6.4 -11.6167
1064 2 11.2 4.8 8 -9.85199
1065 2 12.8 3.2 6.4 -9.7983
1066 2 14.4 4.8 8 -9.83783
1067 1 16 3.2 6.4 -11.6721
1068 1 17.6 4.8 8 -11.6569
1069 2 19.2 3.2 6.4 -9.78191
1070 2 20.8 4.8 8 -9.77249
1071 2 22.4 3.2 6.4 -9.85266
1072 2 24 4.8 8 -9.7861
1073 1 25.6 3.2 6.4 -11.586
1074 2 27.2 4.8 8 -9.83193
1075 2 28.8 3.2 6.4 -9.76504
1076 1 30.4 4.8 8 -11.741
1077 2 32 3.2 6.4 -9.78337
1078 1 33.6 4.8 8 -11.5586
1079 3 35.2 3.2 6.4 -11.0433
1080 1 36.8 4.8 8 -11.4835
1081 1 38.4 3.2 6.4 -11.4049
1082 2 40 4.8 8 -9.72384
1083 2 41.6 3.2 6.4 -9.73094
1084 2 43.2 4.8 8 -9.86544
1085 3 44.8 3.2 6.4 -11.0108
1086 2 46.4 4.8 8 -9.85627
1087 1 48 3.2 6.4 -11.686
1088 2 49.6 4.8 8 -9.95497
1089 2 0 6.4 6.4 -9.76415
1090 2 1.6 8 8 -9.69999
1091 3 3.2 6.4 6.4 -11.2558
1092 2 4.8 8 8 -9.83483
1093 3 6.4 6.4 6.4 -11.2102
1094 1 8 8 8 -11.5436
1095 3 9.6 6.4 6.4 -11.2617
1096 3 11.2 8 8 -11.2378
1097 2 12.8 6.4 6.4 -10.0242
1098 3 14.4 8 8 -11.5275
1099 2 16 6.4 6.4 -9.73639
1100 1 17.6 8 8 -11.5423
1101 1 19.2 6.4 6.4 -11.4141
1102 1 20.8 8 8 -11.4464
1103 1 22.4 6.4 6.4 -11.566