ITEM: TIMESTEP
0
ITEM: NUMBER OF ATOMS
8192
ITEM: BOX BOUNDS pp pp pp
0.0000000000000000e+00 5.1200000000000003e+01
0.0000000000000000e+00 5.1200000000000003e+01
0.0000000000000000e+00 5.1200000000000003e+01
ITEM: ATOMS id type x y z c_eng
1 3 0 0 0 -11.1605
2 2 1.6 1.6 1.6 -9.80852
3 3 3.2 0 0 -11.2397
4 1 4.8 1.6 1.6 -11.7849
5 3 6.4 0 0 -11.1238
6 1 8 1.6 1.6 -11.7844
7 2 9.6 0 0 -9.70694
8 1 11.2 1.6 1.6 -11.812
9 3 12.8 0 0 -11.1661
10 1 14.4 1.6 1.6 -11.819
11 2 16 0 0 -9.72093
12 2 17.6 1.6 1.6 -9.7211
13 3 19.2 0 0 -11.1633
14 1 20.8 1.6 1.6 -11.7324
15 3 22.4 0 0 -11.3036
16 1 24 1.6 1.6 -11.7821
17 3 25.6 0 0 -11.1596
18 1 27.2 1.6 1.6 -11.7485
19 2 28.8 0 0 -9.72767
20 1 30.4 1.6 1.6 -11.7829
21 3 32 0 0 -11.2649
22 1 33.6 1.6 1.6 -11.7809
23 2 35.2 0 0 -9.64829
24 1 36.8 1.6 1.6 -11.7508
25 3 38.4 0 0 -11.0838
26 1 40 1.6 1.6 -11.7852
27 3 41.6 0 0 -11.1627
28 2 43.2 1.6 1.6 -9.72733
29 2 44.8 0 0 -9.73651
30 1 46.4 1.6 1.6 -11.6817
31 3 48 0 0 -11.2009
32 1 49.6 1.6 1.6 -11.6989
33 1 0 3.2 0 -11.6249
34 2 1.6 4.8 1.6 -9.80935
35 2 3.2 3.2 0 -9.78802
36 1 4.8 4.8 1.6 -11.7903
37 3 6.4 3.2 0 -11.1657
38 1 8 4.8 1.6 -11.787
39 3 9.6 3.2 0 -11.1661
40 1 11.2 4.8 1.6 -11.7888
41 3 12.8 3.2 0 -11.2399
42 2 14.4 4.8 1.6 -9.78738
43 2 16 3.2 0 -9.81852
44 2 17.6 4.8 1.6 -9.78445
45 2 19.2 3.2 0 -9.76554
46 2 20.8 4.8 1.6 -9.74263
47 3 22.4 3.2 0 -11.2016
48 1 24 4.8 1.6 -11.8327
49 3 25.6 3.2 0 -11.2368
50 2 27.2 4.8 1.6 -9.79899
51 3 28.8 3.2 0 -11.1968
52 1 30.4 4.8 1.6 -11.7809
53 3 32 3.2 0 -11.1657
54 1 33.6 4.8 1.6 -11.6885
55 2 35.2 3.2 0 -9.69162
56 1 36.8 4.8 1.6 -11.6758
57 2 38.4 3.2 0 -9.63695
58 1 40 4.8 1.6 -11.6217
59 2 41.6 3.2 0 -9.76963
60 2 43.2 4.8 1.6 -9.82712
61 1 44.8 3.2 0 -11.6288
62 2 46.4 4.8 1.6 -9.7603
63 2 48 3.2 0 -9.67376
64 2 49.6 4.8 1.6 -9.73325
65 1 0 6.4 0 -11.7485
66 3 1.6 8 1.6 -11.2668
67 2 3.2 6.4 0 -9.81654
68 2 4.8 8 1.6 -9.83434
69 3 6.4 6.4 0 -11.2814
70 2 8 8 1.6 -9.83318
71 2 9.6 6.4 0 -9.83307
72 2 11.2 8 1.6 -9.7855
73 2 12.8 6.4 0 -9.78991
74 2 14.4 8 1.6 -9.78202
75 1 16 6.4 0 -11.7051
76 3 17.6 8 1.6 -11.0832
77 1 19.2 6.4 0 -11.7051
78 2 20.8 8 1.6 -9.85359
79 3 22.4 6.4 0 -11.283
80 3 24 8 1.6 -11.2875
81 2 25.6 6.4 0 -9.85749
82 2 27.2 8 1.6 -9.81468
83 3 28.8 6.4 0 -11.2589
84 1 30.4 8 1.6 -11.7144
85 2 32 6.4 0 -9.64578
86 1 33.6 8 1.6 -11.6535
87 2 35.2 6.4 0 -9.72974
88 2 36.8 8 1.6 -9.71193
89 1 38.4 6.4 0 -11.5091
90 1 40 8 1.6 -11.559
91 1 41.6 6.4 0 -11.6171
92 3 43.2 8 1.6 -11.2767
93 1 44.8 6.4 0 -11.723
94 2 46.4 8 1.6 -9.79012
95 1 48 6.4 0 -11.7639
96 3 49.6 8 1.6 -11.2034
97 1 0 9.6 0 -11.8415
98 3 1.6 11.2 1.6 -11.2054
99 1 3.2 9.6 0 -11.7831
100 3 4.8 11.2 1.6 -11.1257
101 1 6.4 9.6 0 -11.7409
102 3 8 11.2 1.6 -11.197
103 1 9.6 9.6 0 -11.7571
104 3 11.2 11.2 1.6 -11.2973
105 1 12.8 9.6 0 -11.7639
106 3 14.4 11.2 1.6 -11.2649
107 1 16 9.6 0 -11.7576
108 3 17.6 11.2 1.6 -11.1596
109 1 19.2 9.6 0 -11.673
110 2 20.8 11.2 1.6 -9.72895
111 2 22.4 9.6 0 -9.83422
112 2 24 11.2 1.6 -9.79114
113 2 25.6 9.6 0 -9.75616
114 1 27.2 11.2 1.6 -11.6802
115 3 28.8 9.6 0 -11.1935
116 1 30.4 11.2 1.6 -11.6365
117 2 32 9.6 0 -9.73291
118 2 33.6 11.2 1.6 -9.76844
119 2 35.2 9.6 0 -9.75509
120 2 36.8 11.2 1.6 -9.84708
121 1 38.4 9.6 0 -11.6324
122 2 40 11.2 1.6 -9.78692
123 1 41.6 9.6 0 -11.7314
124 3 43.2 11.2 1.6 -11.2943
125 1 44.8 9.6 0 -11.7831
126 2 46.4 11.2 1.6 -9.74653
127 1 48 9.6 0 -11.7504
128 3 49.6 11.2 1.6 -11.1651
129 1 0 12.8 0 -11.7875
130 2 1.6 14.4 1.6 -9.78346
131 1 3.2 12.8 0 -11.6885
132 2 4.8 14.4 1.6 -9.74674
133 1 6.4 12.8 0 -11.7201
134 3 8 14.4 1.6 -11.2358
135 2 9.6 12.8 0 -9.83419
136 3 11.2 14.4 1.6 -11.2997
137 2 12.8 12.8 0 -9.8435
138 2 14.4 14.4 1.6 -9.82233
139 2 16 12.8 0 -9.78783
140 2 17.6 14.4 1.6 -9.81941
141 1 19.2 12.8 0 -11.6157
142 3 20.8 14.4 1.6 -11.1388
143 2 22.4 12.8 0 -9.71998
144 2 24 14.4 1.6 -9.7845
145 2 25.6 12.8 0 -9.76701
146 1 27.2 14.4 1.6 -11.7373
147 2 28.8 12.8 0 -9.70093
148 1 30.4 14.4 1.6 -11.6633
149 1 32 12.8 0 -11.6808
150 2 33.6 14.4 1.6 -9.82159
151 1 35.2 12.8 0 -11.7627
152 3 36.8 14.4 1.6 -11.2645
153 1 38.4 12.8 0 -11.7564
154 2 40 14.4 1.6 -9.72064
155 1 41.6 12.8 0 -11.7524
156 3 43.2 14.4 1.6 -11.1657
157 1 44.8 12.8 0 -11.7525
158 3 46.4 14.4 1.6 -11.2006
159 1 48 12.8 0 -11.7809
160 2 49.6 14.4 1.6 -9.78779
161 2 0 16 0 -9.83028
162 2 1.6 17.6 1.6 -9.7253
163 1 3.2 16 0 -11.6747
164 3 4.8 17.6 1.6 -11.1896
165 1 6.4 16 0 -11.7285
166 3 8 17.6 1.6 -11.1657
167 1 9.6 16 0 -11.7892
168 3 11.2 17.6 1.6 -11.1666
169 1 12.8 16 0 -11.6432
170 2 14.4 17.6 1.6 -9.7279
171 2 16 16 0 -9.69476
172 1 17.6 17.6 1.6 -11.7343
173 2 19.2 16 0 -9.69565
174 1 20.8 17.6 1.6 -11.7147
175 2 22.4 16 0 -9.72984
176 1 24 17.6 1.6 -11.7312
177 2 25.6 16 0 -9.73234
178 1 27.2 17.6 1.6 -11.7182
179 2 28.8 16 0 -9.75578
180 1 30.4 17.6 1.6 -11.7655
181 2 32 16 0 -9.80684
182 2 33.6 17.6 1.6 -9.83975
183 1 35.2 16 0 -11.8133
184 3 36.8 17.6 1.6 -11.2934
185 1 38.4 16 0 -11.7829
186 2 40 17.6 1.6 -9.76177
187 1 41.6 16 0 -11.7272
188 3 43.2 17.6 1.6 -11.2654
189 1 44.8 16 0 -11.7875
190 2 46.4 17.6 1.6 -9.76118
191 2 48 16 0 -9.7955
192 1 49.6 17.6 1.6 -11.6776
193 2 0 19.2 0 -9.67857
194 1 1.6 20.8 1.6 -11.642
195 1 3.2 19.2 0 -11.5364
196 2 4.8 20.8 1.6 -9.73293
197 1 6.4 19.2 0 -11.7266
198 2 8 20.8 1.6 -9.6459
199 1 9.6 19.2 0 -11.7522
200 3 11.2 20.8 1.6 -11.1262
201 1 12.8 19.2 0 -11.7003
202 2 14.4 20.8 1.6 -9.78605
203 2 16 19.2 0 -9.73195
204 1 17.6 20.8 1.6 -11.7583
205 3 19.2 19.2 0 -11.166
206 1 20.8 20.8 1.6 -11.8415
207 3 22.4 19.2 0 -11.2048
208 1 24 20.8 1.6 -11.8117
209 3 25.6 19.2 0 -11.1657
210 1 27.2 20.8 1.6 -11.7866
211 2 28.8 19.2 0 -9.81146
212 2 30.4 20.8 1.6 -9.85451
213 2 32 19.2 0 -9.84544
214 3 33.6 20.8 1.6 -11.2533
215 1 35.2 19.2 0 -11.8441
216 2 36.8 20.8 1.6 -9.81594
217 2 38.4 19.2 0 -9.78802
218 1 40 20.8 1.6 -11.6684
219 2 41.6 19.2 0 -9.81677
220 3 43.2 20.8 1.6 -11.2768
221 2 44.8 19.2 0 -9.83488
222 1 46.4 20.8 1.6 -11.6706
223 2 48 19.2 0 -9.81419
224 1 49.6 20.8 1.6 -11.695
225 3 0 22.4 0 -11.1207
226 1 1.6 24 1.6 -11.7245
227 2 3.2 22.4 0 -9.75436
228 2 4.8 24 1.6 -9.72093
229 1 6.4 22.4 0 -11.6644
230 2 8 24 1.6 -9.59482
231 1 9.6 22.4 0 -11.7575
232 3 11.2 24 1.6 -11.12
233 1 12.8 22.4 0 -11.7289
234 2 14.4 24 1.6 -9.78834
235 2 16 22.4 0 -9.73423
236 1 17.6 24 1.6 -11.7115
237 3 19.2 22.4 0 -11.2039
238 1 20.8 24 1.6 -11.7882
239 3 22.4 22.4 0 -11.2057
240 1 24 24 1.6 -11.7621
241 3 25.6 22.4 0 -11.1994
242 1 27.2 24 1.6 -11.6962
243 2 28.8 22.4 0 -9.81571
244 2 30.4 24 1.6 -9.76005
245 1 32 22.4 0 -11.7868
246 2 33.6 24 1.6 -9.68003
247 1 35.2 22.4 0 -11.7008
248 2 36.8 24 1.6 -9.6933
249 2 38.4 22.4 0 -9.73238
250 1 40 24 1.6 -11.6709
251 3 41.6 22.4 0 -11.2035
252 3 43.2 24 1.6 -11.197
253 2 44.8 22.4 0 -9.85673
254 1 46.4 24 1.6 -11.7049
255 2 48 22.4 0 -9.7524
256 1 49.6 24 1.6 -11.6905
257 3 0 25.6 0 -11.166
259 3 3.2 25.6 0 -11.1539
261 1 6.4 25.6 0 -11.5748
263 2 9.6 25.6 0 -9.71132
265 1 12.8 25.6 0 -11.6955
267 1 16 25.6 0 -11.6819
269 2 19.2 25.6 0 -9.73448
271 2 22.4 25.6 0 -9.72808
273 2 25.6 25.6 0 -9.82747
275 1 28.8 25.6 0 -11.7661
277 1 32 25.6 0 -11.7186
279 1 35.2 25.6 0 -11.7284
281 2 38.4 25.6 0 -9.78915
283 2 41.6 25.6 0 -9.76636
285 3 44.8 25.6 0 -11.1143
287 2 48 25.6 0 -9.64841
258 1 1.6 27.2 1.6 -11.7525
289 3 0 28.8 0 -11.1262
260 1 4.8 27.2 1.6 -11.5884
291 2 3.2 28.8 0 -9.67735
262 1 8 27.2 1.6 -11.5204
293 2 6.4 28.8 0 -9.66166
264 2 11.2 27.2 1.6 -9.72892
295 2 9.6 28.8 0 -9.75475
266 3 14.4 27.2 1.6 -11.116
297 1 12.8 28.8 0 -11.7029
268 2 17.6 27.2 1.6 -9.78813
299 1 16 28.8 0 -11.6603
270 2 20.8 27.2 1.6 -9.81269
301 1 19.2 28.8 0 -11.7297
272 2 24 27.2 1.6 -9.78361
303 1 22.4 28.8 0 -11.6971
305 1 25.6 28.8 0 -11.7496
274 3 27.2 27.2 1.6 -11.3007
307 1 28.8 28.8 0 -11.7838
276 3 30.4 27.2 1.6 -11.159
309 1 32 28.8 0 -11.8089
278 3 33.6 27.2 1.6 -11.2368
311 2 35.2 28.8 0 -9.80818
280 2 36.8 27.2 1.6 -9.82035
313 2 38.4 28.8 0 -9.75867
282 2 40 27.2 1.6 -9.73293
315 2 41.6 28.8 0 -9.70741
284 1 43.2 27.2 1.6 -11.7264
317 2 44.8 28.8 0 -9.69951
286 1 46.4 27.2 1.6 -11.6946
319 2 48 28.8 0 -9.59793
288 1 49.6 27.2 1.6 -11.7253
290 1 1.6 30.4 1.6 -11.7504
321 2 0 32 0 -9.70616
292 1 4.8 30.4 1.6 -11.7505
323 2 3.2 32 0 -9.75212
294 1 8 30.4 1.6 -11.7308
325 3 6.4 32 0 -11.1196
296 2 11.2 30.4 1.6 -9.73473
327 2 9.6 32 0 -9.6644
298 2 14.4 30.4 1.6 -9.71927
329 1 12.8 32 0 -11.6545
300 3 17.6 30.4 1.6 -11.1241
331 1 16 32 0 -11.726
302 3 20.8 30.4 1.6 -11.1654
333 1 19.2 32 0 -11.7808
304 2 24 30.4 1.6 -9.64793
335 1 22.4 32 0 -11.7811
337 1 25.6 32 0 -11.7532
306 3 27.2 30.4 1.6 -11.1245
339 1 28.8 32 0 -11.7846
308 2 30.4 30.4 1.6 -9.73544
341 1 32 32 0 -11.7853
310 3 33.6 30.4 1.6 -11.1928
343 2 35.2 32 0 -9.79327
312 1 36.8 30.4 1.6 -11.5711
345 2 38.4 32 0 -9.69102
314 1 40 30.4 1.6 -11.6094
347 2 41.6 32 0 -9.70043
316 1 43.2 30.4 1.6 -11.6414
349 1 44.8 32 0 -11.6459
318 1 46.4 30.4 1.6 -11.6006
351 1 48 32 0 -11.5817
320 1 49.6 30.4 1.6 -11.6537
322 1 1.6 33.6 1.6 -11.7404
353 1 0 35.2 0 -11.7128
324 1 4.8 33.6 1.6 -11.7875
355 2 3.2 35.2 0 -9.75559
326 1 8 33.6 1.6 -11.7838
357 2 6.4 35.2 0 -9.72364
328 1 11.2 33.6 1.6 -11.7005
359 3 9.6 35.2 0 -11.0406
330 2 14.4 33.6 1.6 -9.64003
361 2 12.8 35.2 0 -9.70252
332 3 17.6 33.6 1.6 -11.0835
363 1 16 35.2 0 -11.683
334 3 20.8 33.6 1.6 -11.2429
365 1 19.2 35.2 0 -11.7823
336 3 24 33.6 1.6 -11.1645
367 1 22.4 35.2 0 -11.8415
369 1 25.6 35.2 0 -11.8124
338 2 27.2 33.6 1.6 -9.73522
371 1 28.8 35.2 0 -11.7831
340 3 30.4 33.6 1.6 -11.1248
373 1 32 35.2 0 -11.7289
342 2 33.6 33.6 1.6 -9.76173
375 2 35.2 35.2 0 -9.85369
344 1 36.8 33.6 1.6 -11.6604
377 2 38.4 35.2 0 -9.8082
346 1 40 33.6 1.6 -11.6651
379 2 41.6 35.2 0 -9.75541
348 2 43.2 33.6 1.6 -9.78464
381 1 44.8 35.2 0 -11.7619
350 3 46.4 33.6 1.6 -11.2438
383 1 48 35.2 0 -11.7557
352 2 49.6 33.6 1.6 -9.75313
354 2 1.6 36.8 1.6 -9.77573
385 1 0 38.4 0 -11.7593
356 1 4.8 36.8 1.6 -11.6223
387 1 3.2 38.4 0 -11.6297
358 1 8 36.8 1.6 -11.6859
389 1 6.4 38.4 0 -11.4393
360 1 11.2 36.8 1.6 -11.7522
391 2 9.6 38.4 0 -9.72884
362 1 14.4 36.8 1.6 -11.6989
393 3 12.8 38.4 0 -11.1257
364 2 17.6 36.8 1.6 -9.80083
395 3 16 38.4 0 -11.235
366 3 20.8 36.8 1.6 -11.2662
397 2 19.2 38.4 0 -9.89175
368 3 24 36.8 1.6 -11.1645
399 1 22.4 38.4 0 -11.7828
401 1 25.6 38.4 0 -11.8124
370 3 27.2 36.8 1.6 -11.2042
403 1 28.8 38.4 0 -11.8122
372 3 30.4 36.8 1.6 -11.1648
405 1 32 38.4 0 -11.7583
374 2 33.6 36.8 1.6 -9.78178
407 1 35.2 38.4 0 -11.7667
376 2 36.8 36.8 1.6 -9.8128
409 2 38.4 38.4 0 -9.77455
378 1 40 36.8 1.6 -11.68
411 2 41.6 38.4 0 -9.77471
380 2 43.2 36.8 1.6 -9.8127
413 1 44.8 38.4 0 -11.7923
382 2 46.4 36.8 1.6 -9.84019
415 1 48 38.4 0 -11.7843
384 2 49.6 36.8 1.6 -9.81306
386 2 1.6 40 1.6 -9.83066
417 2 0 41.6 0 -9.82671
388 1 4.8 40 1.6 -11.6066
419 2 3.2 41.6 0 -9.80305
390 2 8 40 1.6 -9.71466
421 1 6.4 41.6 0 -11.6439
392 1 11.2 40 1.6 -11.7249
423 2 9.6 41.6 0 -9.81074
394 1 14.4 40 1.6 -11.7803
425 2 12.8 41.6 0 -9.677
396 1 17.6 40 1.6 -11.8475
427 3 16 41.6 0 -11.2051
398 2 20.8 40 1.6 -9.83247
429 3 19.2 41.6 0 -11.2879
400 2 24 40 1.6 -9.70706
431 1 22.4 41.6 0 -11.7174
433 1 25.6 41.6 0 -11.7846
402 3 27.2 40 1.6 -11.2036
435 1 28.8 41.6 0 -11.8417
404 3 30.4 40 1.6 -11.2045
437 1 32 41.6 0 -11.8122
406 3 33.6 40 1.6 -11.1257
439 1 35.2 41.6 0 -11.7803
408 3 36.8 40 1.6 -11.1596
441 1 38.4 41.6 0 -11.7531
410 2 40 40 1.6 -9.79985
443 1 41.6 41.6 0 -11.7598
412 2 43.2 40 1.6 -9.86727
445 1 44.8 41.6 0 -11.7899
414 3 46.4 40 1.6 -11.2882
447 1 48 41.6 0 -11.7408
416 3 49.6 40 1.6 -11.2688
418 1 1.6 43.2 1.6 -11.8023
449 2 0 44.8 0 -9.75102
420 2 4.8 43.2 1.6 -9.74333
451 2 3.2 44.8 0 -9.84815
422 2 8 43.2 1.6 -9.80302
453 1 6.4 44.8 0 -11.662
424 1 11.2 43.2 1.6 -11.7197
455 3 9.6 44.8 0 -11.2635
426 1 14.4 43.2 1.6 -11.7201
457 3 12.8 44.8 0 -11.1654
428 1 17.6 43.2 1.6 -11.7928
459 3 16 44.8 0 -11.2006
430 2 20.8 43.2 1.6 -9.80896
461 3 19.2 44.8 0 -11.3061
432 3 24 43.2 1.6 -11.1235
463 1 22.4 44.8 0 -11.7674
465 1 25.6 44.8 0 -11.7833
434 3 27.2 43.2 1.6 -11.2423
467 1 28.8 44.8 0 -11.7803
436 3 30.4 43.2 1.6 -11.2423
469 1 32 44.8 0 -11.7875
438 3 33.6 43.2 1.6 -11.2057
471 1 35.2 44.8 0 -11.7579
440 3 36.8 43.2 1.6 -11.1971
473 1 38.4 44.8 0 -11.7644
442 2 40 43.2 1.6 -9.78426
475 1 41.6 44.8 0 -11.6781
444 2 43.2 43.2 1.6 -9.80849
477 2 44.8 44.8 0 -9.8307
446 2 46.4 43.2 1.6 -9.80021
479 2 48 44.8 0 -9.78486
448 1 49.6 43.2 1.6 -11.7263
450 1 1.6 46.4 1.6 -11.7551
481 3 0 48 0 -11.2054
452 2 4.8 46.4 1.6 -9.74326
483 3 3.2 48 0 -11.2024
454 2 8 46.4 1.6 -9.8079
485 2 6.4 48 0 -9.72832
456 1 11.2 46.4 1.6 -11.8116
487 2 9.6 48 0 -9.71534
458 1 14.4 46.4 1.6 -11.757
489 3 12.8 48 0 -11.1664
460 2 17.6 46.4 1.6 -9.79973
491 2 16 48 0 -9.71869
462 3 20.8 46.4 1.6 -11.324
493 2 19.2 48 0 -9.83043
464 3 24 46.4 1.6 -11.3034
495 2 22.4 48 0 -9.89159
497 2 25.6 48 0 -9.77007
466 3 27.2 46.4 1.6 -11.1643
499 1 28.8 48 0 -11.6765
468 3 30.4 46.4 1.6 -11.2668
501 2 32 48 0 -9.85465
470 2 33.6 46.4 1.6 -9.8128
503 2 35.2 48 0 -9.75535
472 2 36.8 46.4 1.6 -9.79049
505 2 38.4 48 0 -9.78556
474 2 40 46.4 1.6 -9.75555
507 2 41.6 48 0 -9.76221
476 1 43.2 46.4 1.6 -11.7085
509 3 44.8 48 0 -11.186
478 1 46.4 46.4 1.6 -11.7913
511 3 48 48 0 -11.2366
480 1 49.6 46.4 1.6 -11.7236
482 1 1.6 49.6 1.6 -11.8093
484 1 4.8 49.6 1.6 -11.7635
486 1 8 49.6 1.6 -11.7565
488 1 11.2 49.6 1.6 -11.7806
490 1 14.4 49.6 1.6 -11.7172
492 1 17.6 49.6 1.6 -11.6565
494 2 20.8 49.6 1.6 -9.79763
496 2 24 49.6 1.6 -9.8163
498 1 27.2 49.6 1.6 -11.6144
500 2 30.4 49.6 1.6 -9.81494
502 1 33.6 49.6 1.6 -11.7576
504 1 36.8 49.6 1.6 -11.7293
506 1 40 49.6 1.6 -11.7289
508 1 43.2 49.6 1.6 -11.7344
510 1 46.4 49.6 1.6 -11.7285
512 1 49.6 49.6 1.6 -11.7803
513 3 0 0 3.2 -11.2268
514 2 1.6 1.6 4.8 -9.78884
515 2 3.2 0 3.2 -9.84358
516 1 4.8 1.6 4.8 -11.6866
517 2 6.4 0 3.2 -9.72846
518 1 8 1.6 4.8 -11.7005
519 3 9.6 0 3.2 -11.2006
520 1 11.2 1.6 4.8 -11.7882
521 3 12.8 0 3.2 -11.2397
522 2 14.4 1.6 4.8 -9.83308
523 2 16 0 3.2 -9.78508
524 2 17.6 1.6 4.8 -9.81181
525 1 19.2 0 3.2 -11.6706
526 3 20.8 1.6 4.8 -11.1093
527 2 22.4 0 3.2 -9.77985
528 1 24 1.6 4.8 -11.7474
529 2 25.6 0 3.2 -9.76258
530 1 27.2 1.6 4.8 -11.7297
531 2 28.8 0 3.2 -9.72936
532 1 30.4 1.6 4.8 -11.7193
533 3 32 0 3.2 -11.3032
534 1 33.6 1.6 4.8 -11.7809
535 3 35.2 0 3.2 -11.1651
536 1 36.8 1.6 4.8 -11.8124
537 3 38.4 0 3.2 -11.1654
538 1 40 1.6 4.8 -11.812
539 2 41.6 0 3.2 -9.8143
540 1 43.2 1.6 4.8 -11.793
541 2 44.8 0 3.2 -9.76591
542 1 46.4 1.6 4.8 -11.6962
543 2 48 0 3.2 -9.69171
544 1 49.6 1.6 4.8 -11.7514
545 2 0 3.2 3.2 -9.78443
546 1 1.6 4.8 4.8 -11.7238
547 3 3.2 3.2 3.2 -11.293
548 1 4.8 4.8 4.8 -11.7281
549 3 6.4 3.2 3.2 -11.1262
550 1 8 4.8 4.8 -11.6741
551 3 9.6 3.2 3.2 -11.1668
552 1 11.2 4.8 4.8 -11.6415
553 3 12.8 3.2 3.2 -11.3293
554 2 14.4 4.8 4.8 -9.83572
555 2 16 3.2 3.2 -9.82857
556 2 17.6 4.8 4.8 -9.69107
557 1 19.2 3.2 3.2 -11.6797
558 2 20.8 4.8 4.8 -9.81325
559 2 22.4 3.2 3.2 -9.79089
560 1 24 4.8 4.8 -11.7322
561 3 25.6 3.2 3.2 -11.1598
562 1 27.2 4.8 4.8 -11.7539
563 2 28.8 3.2 3.2 -9.74371
564 1 30.4 4.8 4.8 -11.6911
565 3 32 3.2 3.2 -11.1243
566 1 33.6 4.8 4.8 -11.6975
567 3 35.2 3.2 3.2 -11.1257
568 1 36.8 4.8 4.8 -11.7293
569 3 38.4 3.2 3.2 -11.1663
570 1 40 4.8 4.8 -11.7505
571 3 41.6 3.2 3.2 -11.2668
572 1 43.2 4.8 4.8 -11.7512
573 2 44.8 3.2 3.2 -9.75891
574 1 46.4 4.8 4.8 -11.7289
575 2 48 3.2 3.2 -9.72419
576 1 49.6 4.8 4.8 -11.6995
577 1 0 6.4 3.2 -11.6824
578 2 1.6 8 4.8 -9.76262
579 2 3.2 6.4 3.2 -9.80843
580 2 4.8 8 4.8 -9.72792
581 2 6.4 6.4 3.2 -9.81316
582 2 8 8 4.8 -9.70038
583 2 9.6 6.4 3.2 -9.72806
584 2 11.2 8 4.8 -9.72886
585 2 12.8 6.4 3.2 -9.80378
586 3 14.4 8 4.8 -11.2026
587 1 16 6.4 3.2 -11.7633
588 3 17.6 8 4.8 -11.167
589 1 19.2 6.4 3.2 -11.7234
590 3 20.8 8 4.8 -11.2298
591 2 22.4 6.4 3.2 -9.87243
592 2 24 8 4.8 -9.81642
593 2 25.6 6.4 3.2 -9.83933
594 1 27.2 8 4.8 -11.7142
595 3 28.8 6.4 3.2 -11.2249
596 1 30.4 8 4.8 -11.6967
597 2 32 6.4 3.2 -9.69172
598 2 33.6 8 4.8 -9.75565
599 2 35.2 6.4 3.2 -9.73152
600 2 36.8 8 4.8 -9.76103
601 2 38.4 6.4 3.2 -9.69809
602 1 40 8 4.8 -11.668
603 3 41.6 6.4 3.2 -11.1887
604 1 43.2 8 4.8 -11.7079
605 2 44.8 6.4 3.2 -9.80461
606 1 46.4 8 4.8 -11.634
607 2 48 6.4 3.2 -9.75592
608 2 49.6 8 4.8 -9.73115
609 1 0 9.6 3.2 -11.78
610 3 1.6 11.2 4.8 -11.1673
611 1 3.2 9.6 3.2 -11.7875
612 3 4.8 11.2 4.8 -11.1249
613 1 6.4 9.6 3.2 -11.7287
614 2 8 11.2 4.8 -9.70717
615 1 9.6 9.6 3.2 -11.7289
616 3 11.2 11.2 4.8 -11.1648
617 1 12.8 9.6 3.2 -11.7875
618 3 14.4 11.2 4.8 -11.1241
619 1 16 9.6 3.2 -11.7826
620 2 17.6 11.2 4.8 -9.67735
621 1 19.2 9.6 3.2 -11.7525
622 3 20.8 11.2 4.8 -11.0832
623 1 22.4 9.6 3.2 -11.7545
624 2 24 11.2 4.8 -9.80444
625 1 25.6 9.6 3.2 -11.6901
626 2 27.2 11.2 4.8 -9.76798
627 2 28.8 9.6 3.2 -9.70548
628 1 30.4 11.2 4.8 -11.7003
629 2 32 9.6 3.2 -9.70016
630 2 33.6 11.2 4.8 -9.81412
631 1 35.2 9.6 3.2 -11.7203
632 2 36.8 11.2 4.8 -9.77779
633 2 38.4 9.6 3.2 -9.78543
634 2 40 11.2 4.8 -9.78558
635 3 41.6 9.6 3.2 -11.2985
636 2 43.2 11.2 4.8 -9.83945
637 2 44.8 9.6 3.2 -9.7797
638 3 46.4 11.2 4.8 -11.2021
639 1 48 9.6 3.2 -11.7693
640 3 49.6 11.2 4.8 -11.2013
641 1 0 12.8 3.2 -11.7588
642 2 1.6 14.4 4.8 -9.83425
643 1 3.2 12.8 3.2 -11.7878
644 3 4.8 14.4 4.8 -11.2298
645 1 6.4 12.8 3.2 -11.7826
646 3 8 14.4 4.8 -11.2045
647 1 9.6 12.8 3.2 -11.8377
648 3 11.2 14.4 4.8 -11.2745
649 1 12.8 12.8 3.2 -11.8091
650 2 14.4 14.4 4.8 -9.81127
651 1 16 12.8 3.2 -11.7586
652 2 17.6 14.4 4.8 -9.75497
653 1 19.2 12.8 3.2 -11.731
654 2 20.8 14.4 4.8 -9.69648
655 1 22.4 12.8 3.2 -11.7329
656 2 24 14.4 4.8 -9.77741
657 2 25.6 12.8 3.2 -9.8307
658 2 27.2 14.4 4.8 -9.80964
659 2 28.8 12.8 3.2 -9.74644
660 1 30.4 14.4 4.8 -11.7849
661 2 32 12.8 3.2 -9.74382
662 2 33.6 14.4 4.8 -9.84004
663 2 35.2 12.8 3.2 -9.81753
664 3 36.8 14.4 4.8 -11.2554
665 2 38.4 12.8 3.2 -9.81171
666 2 40 14.4 4.8 -9.69078
667 1 41.6 12.8 3.2 -11.7777
668 3 43.2 14.4 4.8 -11.1241
669 1 44.8 12.8 3.2 -11.8177
670 3 46.4 14.4 4.8 -11.2031
671 1 48 12.8 3.2 -11.7515
672 2 49.6 14.4 4.8 -9.78602
673 2 0 16 3.2 -9.78574
674 1 1.6 17.6 4.8 -11.7335
675 2 3.2 16 3.2 -9.83579
676 2 4.8 17.6 4.8 -9.78246
677 1 6.4 16 3.2 -11.8175
678 3 8 17.6 4.8 -11.1999
679 1 9.6 16 3.2 -11.8411
680 3 11.2 17.6 4.8 -11.2721
681 1 12.8 16 3.2 -11.7892
682 2 14.4 17.6 4.8 -9.78986
683 2 16 16 3.2 -9.81274
684 1 17.6 17.6 4.8 -11.7019
685 2 19.2 16 3.2 -9.75381
686 1 20.8 17.6 4.8 -11.6485
687 1 22.4 16 3.2 -11.6122
688 2 24 17.6 4.8 -9.68413
689 2 25.6 16 3.2 -9.76517
690 1 27.2 17.6 4.8 -11.7968
691 3 28.8 16 3.2 -11.1595
692 1 30.4 17.6 4.8 -11.7561
693 2 32 16 3.2 -9.73155
694 1 33.6 17.6 4.8 -11.6687
695 1 35.2 16 3.2 -11.7675
696 2 36.8 17.6 4.8 -9.74342
697 1 38.4 16 3.2 -11.7565
698 2 40 17.6 4.8 -9.6596
699 1 41.6 16 3.2 -11.7176
700 3 43.2 17.6 4.8 -11.1676
701 1 44.8 16 3.2 -11.78
702 2 46.4 17.6 4.8 -9.76262
703 1 48 16 3.2 -11.6837
704 1 49.6 17.6 4.8 -11.6352
705 2 0 19.2 3.2 -9.62615
706 1 1.6 20.8 4.8 -11.6918
707 2 3.2 19.2 3.2 -9.7789
708 2 4.8 20.8 4.8 -9.77919
709 1 6.4 19.2 3.2 -11.7237
710 2 8 20.8 4.8 -9.7328
711 1 9.6 19.2 3.2 -11.7836
712 2 11.2 20.8 4.8 -9.69581
713 1 12.8 19.2 3.2 -11.7281
714 2 14.4 20.8 4.8 -9.80479
715 2 16 19.2 3.2 -9.78593
716 1 17.6 20.8 4.8 -11.7252
717 3 19.2 19.2 3.2 -11.1255
718 1 20.8 20.8 4.8 -11.7776
719 3 22.4 19.2 3.2 -11.1646
720 1 24 20.8 4.8 -11.8514
721 3 25.6 19.2 3.2 -11.2733
722 2 27.2 20.8 4.8 -9.81427
723 3 28.8 19.2 3.2 -11.293
724 2 30.4 20.8 4.8 -9.89581
725 2 32 19.2 3.2 -9.85692
726 2 33.6 20.8 4.8 -9.69701
727 2 35.2 19.2 3.2 -9.74098
728 1 36.8 20.8 4.8 -11.5331
729 2 38.4 19.2 3.2 -9.77354
730 2 40 20.8 4.8 -9.60295
731 1 41.6 19.2 3.2 -11.7303
732 3 43.2 20.8 4.8 -11.1276
733 1 44.8 19.2 3.2 -11.7298
734 2 46.4 20.8 4.8 -9.72927
735 2 48 19.2 3.2 -9.66936
736 1 49.6 20.8 4.8 -11.6962
737 2 0 22.4 3.2 -9.64852
738 1 1.6 24 4.8 -11.7496
739 2 3.2 22.4 3.2 -9.78392
740 2 4.8 24 4.8 -9.78795
741 1 6.4 22.4 3.2 -11.6678
742 2 8 24 4.8 -9.75533
743 1 9.6 22.4 3.2 -11.6966
744 2 11.2 24 4.8 -9.78209
745 1 12.8 22.4 3.2 -11.7256
746 3 14.4 24 4.8 -11.2208
747 2 16 22.4 3.2 -9.83349
748 1 17.6 24 4.8 -11.7214
749 3 19.2 22.4 3.2 -11.1997
750 2 20.8 24 4.8 -9.83205
751 3 22.4 22.4 3.2 -11.3
752 2 24 24 4.8 -9.78842
753 2 25.6 22.4 3.2 -9.78711
754 1 27.2 24 4.8 -11.7135
755 2 28.8 22.4 3.2 -9.85801
756 3 30.4 24 4.8 -11.2413
757 1 32 22.4 3.2 -11.7589
758 3 33.6 24 4.8 -11.156
759 1 35.2 22.4 3.2 -11.671
760 2 36.8 24 4.8 -9.72285
761 2 38.4 22.4 3.2 -9.71293
762 2 40 24 4.8 -9.7288
763 1 41.6 22.4 3.2 -11.6832
764 3 43.2 24 4.8 -11.1978
765 1 44.8 22.4 3.2 -11.7456
766 3 46.4 24 4.8 -11.2735
767 3 48 22.4 3.2 -11.106
768 1 49.6 24 4.8 -11.7754
769 2 0 25.6 3.2 -9.71768
771 2 3.2 25.6 3.2 -9.73217
773 1 6.4 25.6 3.2 -11.5358
775 1 9.6 25.6 3.2 -11.659
777 1 12.8 25.6 3.2 -11.7854
779 2 16 25.6 3.2 -9.77347
781 2 19.2 25.6 3.2 -9.82775
783 2 22.4 25.6 3.2 -9.85473
785 2 25.6 25.6 3.2 -9.80265
787 2 28.8 25.6 3.2 -9.82861
789 1 32 25.6 3.2 -11.8122
791 1 35.2 25.6 3.2 -11.7576
793 2 38.4 25.6 3.2 -9.78324
795 1 41.6 25.6 3.2 -11.7093
797 2 44.8 25.6 3.2 -9.82662
799 2 48 25.6 3.2 -9.80428
770 1 1.6 27.2 4.8 -11.7852
801 3 0 28.8 3.2 -11.2023
772 1 4.8 27.2 4.8 -11.7599
803 3 3.2 28.8 3.2 -11.166
774 2 8 27.2 4.8 -9.76208
805 3 6.4 28.8 3.2 -11.0694
776 3 11.2 27.2 4.8 -11.1588
807 1 9.6 28.8 3.2 -11.657
778 3 14.4 27.2 4.8 -11.3104
809 1 12.8 28.8 3.2 -11.7574
780 3 17.6 27.2 4.8 -11.2343
811 1 16 28.8 3.2 -11.8131
782 3 20.8 27.2 4.8 -11.2668
813 1 19.2 28.8 3.2 -11.8139
784 2 24 27.2 4.8 -9.78134
815 1 22.4 28.8 3.2 -11.7245
817 1 25.6 28.8 3.2 -11.7497
786 3 27.2 27.2 4.8 -11.2242
819 1 28.8 28.8 3.2 -11.8131
788 2 30.4 27.2 4.8 -9.88202
821 1 32 28.8 3.2 -11.7838
790 3 33.6 27.2 4.8 -11.2394
823 1 35.2 28.8 3.2 -11.7135
792 3 36.8 27.2 4.8 -11.2011
825 1 38.4 28.8 3.2 -11.6687
794 3 40 27.2 4.8 -11.2588
827 2 41.6 28.8 3.2 -9.7532
796 2 43.2 27.2 4.8 -9.8371
829 3 44.8 28.8 3.2 -11.1468
798 2 46.4 27.2 4.8 -9.89282
831 2 48 28.8 3.2 -9.75158
800 2 49.6 27.2 4.8 -9.76871
802 1 1.6 30.4 4.8 -11.8122
833 3 0 32 3.2 -11.2034
804 1 4.8 30.4 4.8 -11.8419
835 3 3.2 32 3.2 -11.2045
806 2 8 30.4 4.8 -9.77353
837 3 6.4 32 3.2 -11.3099
808 2 11.2 30.4 4.8 -9.83505
839 3 9.6 32 3.2 -11.2271
810 3 14.4 30.4 4.8 -11.1569
841 2 12.8 32 3.2 -9.75488
812 3 17.6 30.4 4.8 -11.1657
843 1 16 32 3.2 -11.6908
814 3 20.8 30.4 4.8 -11.2051
845 1 19.2 32 3.2 -11.8124
816 2 24 30.4 4.8 -9.67676
847 1 22.4 32 3.2 -11.7811
849 1 25.6 32 3.2 -11.7532
818 3 27.2 30.4 4.8 -11.2054
851 1 28.8 32 3.2 -11.7846
820 3 30.4 30.4 4.8 -11.1648
853 1 32 32 3.2 -11.7522
822 3 33.6 30.4 4.8 -11.2041
855 1 35.2 32 3.2 -11.6209
824 2 36.8 30.4 4.8 -9.70055
857 2 38.4 32 3.2 -9.59767
826 2 40 30.4 4.8 -9.80921
859 2 41.6 32 3.2 -9.70727
828 1 43.2 30.4 4.8 -11.6971
861 2 44.8 32 3.2 -9.75385
830 1 46.4 30.4 4.8 -11.701
863 2 48 32 3.2 -9.75074
832 1 49.6 30.4 4.8 -11.7245
834 1 1.6 33.6 4.8 -11.812
865 2 0 35.2 3.2 -9.7909
836 1 4.8 33.6 4.8 -11.8415
867 3 3.2 35.2 3.2 -11.2402
838 1 8 33.6 4.8 -11.8421
869 3 6.4 35.2 3.2 -11.1648
840 1 11.2 33.6 4.8 -11.7551
871 3 9.6 35.2 3.2 -11.2054
842 1 14.4 33.6 4.8 -11.6116
873 2 12.8 35.2 3.2 -9.73431
844 2 17.6 33.6 4.8 -9.66243
875 1 16 35.2 3.2 -11.6345
846 3 20.8 33.6 4.8 -11.1238
877 1 19.2 35.2 3.2 -11.7574
848 3 24 33.6 4.8 -11.1664
879 1 22.4 35.2 3.2 -11.7808
881 1 25.6 35.2 3.2 -11.7831
850 3 27.2 33.6 4.8 -11.1658
883 1 28.8 35.2 3.2 -11.8124
852 3 30.4 33.6 4.8 -11.1657
885 1 32 35.2 3.2 -11.7878
854 2 33.6 33.6 4.8 -9.73695
887 2 35.2 35.2 3.2 -9.80209
856 1 36.8 33.6 4.8 -11.7018
889 3 38.4 35.2 3.2 -11.1124
858 1 40 33.6 4.8 -11.6964
891 2 41.6 35.2 3.2 -9.724
860 1 43.2 33.6 4.8 -11.6694
893 2 44.8 35.2 3.2 -9.82889
862 2 46.4 33.6 4.8 -9.76066
895 2 48 35.2 3.2 -9.82887
864 1 49.6 33.6 4.8 -11.7637
866 1 1.6 36.8 4.8 -11.8141
897 2 0 38.4 3.2 -9.85825
868 1 4.8 36.8 4.8 -11.8122
899 3 3.2 38.4 3.2 -11.1945
870 1 8 36.8 4.8 -11.8122
901 2 6.4 38.4 3.2 -9.6932
872 1 11.2 36.8 4.8 -11.8423
903 3 9.6 38.4 3.2 -11.2024
874 2 14.4 36.8 4.8 -9.75793
905 3 12.8 38.4 3.2 -11.2379
876 2 17.6 36.8 4.8 -9.82471
907 3 16 38.4 3.2 -11.3259
878 2 20.8 36.8 4.8 -9.77816
909 2 19.2 38.4 3.2 -9.90499
880 2 24 36.8 4.8 -9.70683
911 1 22.4 38.4 3.2 -11.7539
913 1 25.6 38.4 3.2 -11.7846
882 3 27.2 36.8 4.8 -11.2042
915 1 28.8 38.4 3.2 -11.8124
884 3 30.4 36.8 4.8 -11.2048
917 1 32 38.4 3.2 -11.7525
886 3 33.6 36.8 4.8 -11.2565
919 1 35.2 38.4 3.2 -11.6901
888 2 36.8 36.8 4.8 -9.78538
921 1 38.4 38.4 3.2 -11.6053
890 1 40 36.8 4.8 -11.6843
923 2 41.6 38.4 3.2 -9.7242
892 1 43.2 36.8 4.8 -11.6656
925 2 44.8 38.4 3.2 -9.77736
894 1 46.4 36.8 4.8 -11.7029
927 2 48 38.4 3.2 -9.82621
896 1 49.6 36.8 4.8 -11.7278
898 1 1.6 40 4.8 -11.7798
929 3 0 41.6 3.2 -11.2891
900 1 4.8 40 4.8 -11.7198
931 3 3.2 41.6 3.2 -11.2713
902 1 8 40 4.8 -11.7583
933 2 6.4 41.6 3.2 -9.67257
904 1 11.2 40 4.8 -11.7505
935 2 9.6 41.6 3.2 -9.78143
906 1 14.4 40 4.8 -11.7776
937 2 12.8 41.6 3.2 -9.61467
908 2 17.6 40 4.8 -9.90271
939 3 16 41.6 3.2 -11.2278
910 3 20.8 40 4.8 -11.2554
941 2 19.2 41.6 3.2 -9.82788
912 3 24 40 4.8 -11.1648
943 1 22.4 41.6 3.2 -11.7566
945 1 25.6 41.6 3.2 -11.8124
914 3 27.2 40 4.8 -11.2039
947 1 28.8 41.6 3.2 -11.8124
916 2 30.4 40 4.8 -9.70671
949 1 32 41.6 3.2 -11.7808
918 2 33.6 40 4.8 -9.73218
951 1 35.2 41.6 3.2 -11.6957
920 1 36.8 40 4.8 -11.609
953 2 38.4 41.6 3.2 -9.71599
922 1 40 40 4.8 -11.6928
955 2 41.6 41.6 3.2 -9.7859
924 1 43.2 40 4.8 -11.6964
957 2 44.8 41.6 3.2 -9.80598
926 1 46.4 40 4.8 -11.6807
959 2 48 41.6 3.2 -9.84515
928 1 49.6 40 4.8 -11.8064
930 1 1.6 43.2 4.8 -11.7241
961 2 0 44.8 3.2 -9.78141
932 1 4.8 43.2 4.8 -11.622
963 3 3.2 44.8 3.2 -11.1117
934 1 8 43.2 4.8 -11.7272
965 1 6.4 44.8 3.2 -11.6373
936 1 11.2 43.2 4.8 -11.6881
967 3 9.6 44.8 3.2 -11.26
938 1 14.4 43.2 4.8 -11.6377
969 2 12.8 44.8 3.2 -9.64602
940 2 17.6 43.2 4.8 -9.75723
971 2 16 44.8 3.2 -9.73008
942 2 20.8 43.2 4.8 -9.74959
973 1 19.2 44.8 3.2 -11.7563
944 3 24 43.2 4.8 -11.2039
975 1 22.4 44.8 3.2 -11.7801
977 1 25.6 44.8 3.2 -11.8415
946 3 27.2 43.2 4.8 -11.2417
979 1 28.8 44.8 3.2 -11.8415
948 3 30.4 43.2 4.8 -11.2042
981 1 32 44.8 3.2 -11.8136
950 3 33.6 43.2 4.8 -11.1573
983 1 35.2 44.8 3.2 -11.6779
952 1 36.8 43.2 4.8 -11.6228
985 2 38.4 44.8 3.2 -9.72009
954 1 40 43.2 4.8 -11.6964
987 2 41.6 44.8 3.2 -9.73277
956 1 43.2 43.2 4.8 -11.6936
989 3 44.8 44.8 3.2 -11.2203
958 1 46.4 43.2 4.8 -11.7117
991 2 48 44.8 3.2 -9.80022
960 2 49.6 43.2 4.8 -9.76628
962 1 1.6 46.4 4.8 -11.695
993 3 0 48 3.2 -11.1625
964 1 4.8 46.4 4.8 -11.6677
995 2 3.2 48 3.2 -9.78748
966 2 8 46.4 4.8 -9.80587
997 2 6.4 48 3.2 -9.796
968 1 11.2 46.4 4.8 -11.7461
999 3 9.6 48 3.2 -11.3273
970 1 14.4 46.4 4.8 -11.6642
1001 3 12.8 48 3.2 -11.1246
972 3 17.6 46.4 4.8 -11.2281
1003 2 16 48 3.2 -9.75592
974 3 20.8 46.4 4.8 -11.2051
1005 1 19.2 48 3.2 -11.7252
976 3 24 46.4 4.8 -11.2045
1007 1 22.4 48 3.2 -11.8184
1009 1 25.6 48 3.2 -11.7298
978 3 27.2 46.4 4.8 -11.2051
1011 1 28.8 48 3.2 -11.7198
980 3 30.4 46.4 4.8 -11.3025
1013 2 32 48 3.2 -9.86717
982 2 33.6 46.4 4.8 -9.83362
1015 2 35.2 48 3.2 -9.76212
984 1 36.8 46.4 4.8 -11.6367
1017 2 38.4 48 3.2 -9.7238
986 1 40 46.4 4.8 -11.6324
1019 2 41.6 48 3.2 -9.7066
988 1 43.2 46.4 4.8 -11.6981
1021 2 44.8 48 3.2 -9.8114
990 2 46.4 46.4 4.8 -9.77491
1023 2 48 48 3.2 -9.76161
992 2 49.6 46.4 4.8 -9.7753
994 1 1.6 49.6 4.8 -11.7303
996 2 4.8 49.6 4.8 -9.69982
998 2 8 49.6 4.8 -9.81648
1000 1 11.2 49.6 4.8 -11.8054
1002 1 14.4 49.6 4.8 -11.7809
1004 2 17.6 49.6 4.8 -9.78181
1006 3 20.8 49.6 4.8 -11.2018
1008 2 24 49.6 4.8 -9.7619
1010 2 27.2 49.6 4.8 -9.72753
1012 2 30.4 49.6 4.8 -9.86725
1014 1 33.6 49.6 4.8 -11.8181
1016 1 36.8 49.6 4.8 -11.7504
1018 1 40 49.6 4.8 -11.7249
1020 2 43.2 49.6 4.8 -9.80056
1022 2 46.4 49.6 4.8 -9.79783
1024 1 49.6 49.6 4.8 -11.7139
1025 2 0 0 6.4 -9.82051
1026 1 1.6 1.6 8 -11.7557
1027 2 3.2 0 6.4 -9.77303
1028 1 4.8 1.6 8 -11.646
1029 1 6.4 0 6.4 -11.5856
1030 2 8 1.6 8 -9.73822
1031 2 9.6 0 6.4 -9.82447
1032 2 11.2 1.6 8 -9.81265
1033 2 12.8 0 6.4 -9.87869
1034 2 14.4 1.6 8 -9.8342
1035 2 16 0 6.4 -9.84631
1036 3 17.6 1.6 8 -11.2001
1037 1 19.2 0 6.4 -11.7846
1038 2 20.8 1.6 8 -9.83273
1039 1 22.4 0 6.4 -11.7736
1040 3 24 1.6 8 -11.2303
1041 2 25.6 0 6.4 -9.80636
1042 2 27.2 1.6 8 -9.79627
1043 2 28.8 0 6.4 -9.79083
1044 1 30.4 1.6 8 -11.6988
1045 3 32 0 6.4 -11.2656
1046 1 33.6 1.6 8 -11.7505
1047 3 35.2 0 6.4 -11.2048
1048 1 36.8 1.6 8 -11.7808
1049 3 38.4 0 6.4 -11.2045
1050 1 40 1.6 8 -11.8413
1051 3 41.6 0 6.4 -11.2657
1052 1 43.2 1.6 8 -11.8139
1053 2 44.8 0 6.4 -9.85564
1054 1 46.4 1.6 8 -11.7402
1055 2 48 0 6.4 -9.73892
1056 2 49.6 1.6 8 -9.78325
1057 3 0 3.2 6.4 -11.2332
1058 1 1.6 4.8 8 -11.7262
1059 3 3.2 3.2 6.4 -11.156
1060 1 4.8 4.8 8 -11.7016
1061 2 6.4 3.2 6.4 -9.6981
1062 2 8 4.8 8 -9.78734
1063 2 9.6 3.2 6.4 -9.72815
1064 2 11.2 4.8 8 -9.70027
1065 2 12.8 3.2 6.4 -9.80361
1066 3 14.4 4.8 8 -11.2029
1067 1 16 3.2 6.4 -11.7963
1068 3 17.6 4.8 8 -11.1254
1069 1 19.2 3.2 6.4 -11.7258
1070 2 20.8 4.8 8 -9.81191
1071 2 22.4 3.2 6.4 -9.83679
1072 1 24 4.8 8 -11.7181
1073 3 25.6 3.2 6.4 -11.2218
1074 1 27.2 4.8 8 -11.6138
1075 2 28.8 3.2 6.4 -9.68854
1076 1 30.4 4.8 8 -11.694
1077 2 32 3.2 6.4 -9.64829
1078 1 33.6 4.8 8 -11.638
1079 2 35.2 3.2 6.4 -9.64578
1080 1 36.8 4.8 8 -11.6699
1081 3 38.4 3.2 6.4 -11.1651
1082 1 40 4.8 8 -11.7779
1083 3 41.6 3.2 6.4 -11.2048
1084 1 43.2 4.8 8 -11.7878
1085 3 44.8 3.2 6.4 -11.126
1086 1 46.4 4.8 8 -11.7522
1087 3 48 3.2 6.4 -11.2016
1088 1 49.6 4.8 8 -11.7849
1089 2 0 6.4 6.4 -9.73383
1090 2 1.6 8 8 -9.75143
1091 2 3.2 6.4 6.4 -9.73195
1092 1 4.8 8 8 -11.5995
1093 2 6.4 6.4 6.4 -9.70957
1094 2 8 8 8 -9.72885
1095 1 9.6 6.4 6.4 -11.6184
1096 3 11.2 8 8 -11.1243
1097 1 12.8 6.4 6.4 -11.7278
1098 3 14.4 8 8 -11.2045
1099 1 16 6.4 6.4 -11.7803
1100 3 17.6 8 8 -11.1651
1101 1 19.2 6.4 6.4 -11.7564
1102 2 20.8 8 8 -9.80908