ITEM: TIMESTEP
0
ITEM: NUMBER OF ATOMS
8192
ITEM: BOX BOUNDS pp pp pp
0.0000000000000000e+00 5.1200000000000003e+01
0.0000000000000000e+00 5.1200000000000003e+01
0.0000000000000000e+00 5.1200000000000003e+01
ITEM: ATOMS id type x y z c_eng
1 3 0 0 0 -11.1651
2 1 1.6 1.6 1.6 -11.7967
3 3 3.2 0 0 -11.2361
4 1 4.8 1.6 1.6 -11.7848
5 3 6.4 0 0 -11.2389
6 1 8 1.6 1.6 -11.8116
7 3 9.6 0 0 -11.2429
8 1 11.2 1.6 1.6 -11.812
9 3 12.8 0 0 -11.2045
10 1 14.4 1.6 1.6 -11.768
11 3 16 0 0 -11.261
12 2 17.6 1.6 1.6 -9.80448
13 2 19.2 0 0 -9.85999
14 2 20.8 1.6 1.6 -9.8414
15 3 22.4 0 0 -11.2276
16 1 24 1.6 1.6 -11.7189
17 2 25.6 0 0 -9.69182
18 1 27.2 1.6 1.6 -11.7148
19 2 28.8 0 0 -9.8056
20 1 30.4 1.6 1.6 -11.8137
21 3 32 0 0 -11.2579
22 1 33.6 1.6 1.6 -11.7804
23 2 35.2 0 0 -9.67758
24 1 36.8 1.6 1.6 -11.7726
25 3 38.4 0 0 -11.0832
26 1 40 1.6 1.6 -11.7798
27 3 41.6 0 0 -11.2245
28 2 43.2 1.6 1.6 -9.81097
29 2 44.8 0 0 -9.79108
30 1 46.4 1.6 1.6 -11.7676
31 3 48 0 0 -11.2404
32 1 49.6 1.6 1.6 -11.7841
33 2 0 3.2 0 -9.83311
34 3 1.6 4.8 1.6 -11.232
35 2 3.2 3.2 0 -9.75741
36 1 4.8 4.8 1.6 -11.7495
37 3 6.4 3.2 0 -11.2054
38 1 8 4.8 1.6 -11.8456
39 3 9.6 3.2 0 -11.2426
40 1 11.2 4.8 1.6 -11.7743
41 3 12.8 3.2 0 -11.2668
42 2 14.4 4.8 1.6 -9.77967
43 2 16 3.2 0 -9.84279
44 2 17.6 4.8 1.6 -9.72407
45 2 19.2 3.2 0 -9.81896
46 2 20.8 4.8 1.6 -9.8344
47 3 22.4 3.2 0 -11.2672
48 1 24 4.8 1.6 -11.7018
49 3 25.6 3.2 0 -11.2011
50 2 27.2 4.8 1.6 -9.74118
51 3 28.8 3.2 0 -11.2372
52 1 30.4 4.8 1.6 -11.8196
53 3 32 3.2 0 -11.1654
54 1 33.6 4.8 1.6 -11.796
55 2 35.2 3.2 0 -9.77759
56 3 36.8 4.8 1.6 -11.2652
57 2 38.4 3.2 0 -9.79041
58 1 40 4.8 1.6 -11.651
59 3 41.6 3.2 0 -11.3042
60 2 43.2 4.8 1.6 -9.83042
61 1 44.8 3.2 0 -11.7549
62 2 46.4 4.8 1.6 -9.80843
63 2 48 3.2 0 -9.78363
64 2 49.6 4.8 1.6 -9.85453
65 1 0 6.4 0 -11.7863
66 3 1.6 8 1.6 -11.2404
67 1 3.2 6.4 0 -11.7213
68 2 4.8 8 1.6 -9.81756
69 3 6.4 6.4 0 -11.2734
70 2 8 8 1.6 -9.87347
71 3 9.6 6.4 0 -11.3439
72 3 11.2 8 1.6 -11.2569
73 2 12.8 6.4 0 -9.84874
74 3 14.4 8 1.6 -11.2002
75 1 16 6.4 0 -11.7335
76 2 17.6 8 1.6 -9.67747
77 1 19.2 6.4 0 -11.6787
78 3 20.8 8 1.6 -11.2535
79 2 22.4 6.4 0 -9.85425
80 2 24 8 1.6 -9.83368
81 2 25.6 6.4 0 -9.79488
82 2 27.2 8 1.6 -9.83982
83 2 28.8 6.4 0 -9.83646
84 2 30.4 8 1.6 -9.77668
85 2 32 6.4 0 -9.72064
86 1 33.6 8 1.6 -11.7562
87 2 35.2 6.4 0 -9.82094
88 3 36.8 8 1.6 -11.1974
89 1 38.4 6.4 0 -11.6487
90 1 40 8 1.6 -11.535
91 1 41.6 6.4 0 -11.6579
92 2 43.2 8 1.6 -9.75993
93 1 44.8 6.4 0 -11.7274
94 2 46.4 8 1.6 -9.76212
95 1 48 6.4 0 -11.7914
96 3 49.6 8 1.6 -11.1627
97 1 0 9.6 0 -11.8124
98 3 1.6 11.2 1.6 -11.166
99 1 3.2 9.6 0 -11.8118
100 3 4.8 11.2 1.6 -11.1254
101 1 6.4 9.6 0 -11.8277
102 3 8 11.2 1.6 -11.167
103 1 9.6 9.6 0 -11.7976
104 3 11.2 11.2 1.6 -11.2377
105 1 12.8 9.6 0 -11.7487
106 3 14.4 11.2 1.6 -11.2015
107 1 16 9.6 0 -11.7287
108 3 17.6 11.2 1.6 -11.1268
109 1 19.2 9.6 0 -11.6989
110 3 20.8 11.2 1.6 -11.1563
111 2 22.4 9.6 0 -9.78762
112 2 24 11.2 1.6 -9.78724
113 2 25.6 9.6 0 -9.78901
114 1 27.2 11.2 1.6 -11.7333
115 3 28.8 9.6 0 -11.2559
116 1 30.4 11.2 1.6 -11.6513
117 2 32 9.6 0 -9.82761
118 2 33.6 11.2 1.6 -9.63722
119 2 35.2 9.6 0 -9.77936
120 2 36.8 11.2 1.6 -9.79437
121 1 38.4 9.6 0 -11.6727
122 2 40 11.2 1.6 -9.64929
123 2 41.6 9.6 0 -9.73188
124 2 43.2 11.2 1.6 -9.81164
125 1 44.8 9.6 0 -11.7639
126 2 46.4 11.2 1.6 -9.69147
127 1 48 9.6 0 -11.7504
128 2 49.6 11.2 1.6 -9.64554
129 1 0 12.8 0 -11.7198
130 2 1.6 14.4 1.6 -9.78365
131 1 3.2 12.8 0 -11.7594
132 2 4.8 14.4 1.6 -9.78292
133 1 6.4 12.8 0 -11.759
134 2 8 14.4 1.6 -9.74946
135 1 9.6 12.8 0 -11.7561
136 3 11.2 14.4 1.6 -11.1983
137 1 12.8 12.8 0 -11.6842
138 2 14.4 14.4 1.6 -9.65298
139 1 16 12.8 0 -11.6939
140 2 17.6 14.4 1.6 -9.75611
141 1 19.2 12.8 0 -11.7205
142 2 20.8 14.4 1.6 -9.86025
143 2 22.4 12.8 0 -9.78332
144 2 24 14.4 1.6 -9.75787
145 2 25.6 12.8 0 -9.71024
146 1 27.2 14.4 1.6 -11.6748
147 2 28.8 12.8 0 -9.7068
148 1 30.4 14.4 1.6 -11.5364
149 1 32 12.8 0 -11.5648
150 2 33.6 14.4 1.6 -9.65989
151 1 35.2 12.8 0 -11.7289
152 3 36.8 14.4 1.6 -11.2015
153 1 38.4 12.8 0 -11.6647
154 1 40 14.4 1.6 -11.4979
155 1 41.6 12.8 0 -11.68
156 3 43.2 14.4 1.6 -11.0373
157 1 44.8 12.8 0 -11.7803
158 3 46.4 14.4 1.6 -11.1622
159 1 48 12.8 0 -11.7508
160 2 49.6 14.4 1.6 -9.72918
161 1 0 16 0 -11.6567
162 2 1.6 17.6 1.6 -9.75994
163 2 3.2 16 0 -9.81749
164 2 4.8 17.6 1.6 -9.9364
165 2 6.4 16 0 -9.84793
166 3 8 17.6 1.6 -11.2522
167 1 9.6 16 0 -11.7917
168 3 11.2 17.6 1.6 -11.1591
169 1 12.8 16 0 -11.6734
170 2 14.4 17.6 1.6 -9.7563
171 2 16 16 0 -9.76795
172 1 17.6 17.6 1.6 -11.7262
173 3 19.2 16 0 -11.2513
174 1 20.8 17.6 1.6 -11.7868
175 2 22.4 16 0 -9.74816
176 1 24 17.6 1.6 -11.6866
177 1 25.6 16 0 -11.5101
178 1 27.2 17.6 1.6 -11.658
179 2 28.8 16 0 -9.67202
180 1 30.4 17.6 1.6 -11.6668
181 1 32 16 0 -11.6377
182 3 33.6 17.6 1.6 -11.1897
183 1 35.2 16 0 -11.8113
184 3 36.8 17.6 1.6 -11.2871
185 2 38.4 16 0 -9.69507
186 2 40 17.6 1.6 -9.70664
187 1 41.6 16 0 -11.669
188 3 43.2 17.6 1.6 -11.2668
189 1 44.8 16 0 -11.8139
190 2 46.4 17.6 1.6 -9.76836
191 1 48 16 0 -11.7003
192 1 49.6 17.6 1.6 -11.6265
193 2 0 19.2 0 -9.76897
194 1 1.6 20.8 1.6 -11.6847
195 3 3.2 19.2 0 -11.3682
196 2 4.8 20.8 1.6 -9.79744
197 2 6.4 19.2 0 -9.88912
198 2 8 20.8 1.6 -9.80548
199 2 9.6 19.2 0 -9.77695
200 2 11.2 20.8 1.6 -9.72086
201 1 12.8 19.2 0 -11.7536
202 2 14.4 20.8 1.6 -9.77742
203 3 16 19.2 0 -11.2518
204 1 17.6 20.8 1.6 -11.7865
205 3 19.2 19.2 0 -11.2435
206 1 20.8 20.8 1.6 -11.812
207 3 22.4 19.2 0 -11.1657
208 1 24 20.8 1.6 -11.7849
209 2 25.6 19.2 0 -9.66171
210 1 27.2 20.8 1.6 -11.7557
211 2 28.8 19.2 0 -9.79587
212 2 30.4 20.8 1.6 -9.75569
213 1 32 19.2 0 -11.7289
214 3 33.6 20.8 1.6 -11.1915
215 1 35.2 19.2 0 -11.6803
216 1 36.8 20.8 1.6 -11.6237
217 2 38.4 19.2 0 -9.75507
218 1 40 20.8 1.6 -11.6805
219 2 41.6 19.2 0 -9.71937
220 2 43.2 20.8 1.6 -9.71775
221 2 44.8 19.2 0 -9.77424
222 1 46.4 20.8 1.6 -11.6473
223 2 48 19.2 0 -9.74013
224 1 49.6 20.8 1.6 -11.6864
225 3 0 22.4 0 -11.201
226 1 1.6 24 1.6 -11.6832
227 3 3.2 22.4 0 -11.1925
228 2 4.8 24 1.6 -9.78021
229 1 6.4 22.4 0 -11.7512
230 3 8 24 1.6 -11.1598
231 1 9.6 22.4 0 -11.7878
232 3 11.2 24 1.6 -11.0832
233 1 12.8 22.4 0 -11.6964
234 2 14.4 24 1.6 -9.69594
235 2 16 22.4 0 -9.76259
236 1 17.6 24 1.6 -11.7034
237 3 19.2 22.4 0 -11.2404
238 1 20.8 24 1.6 -11.7617
239 3 22.4 22.4 0 -11.166
240 1 24 24 1.6 -11.7495
241 3 25.6 22.4 0 -11.0829
242 1 27.2 24 1.6 -11.7362
243 2 28.8 22.4 0 -9.81284
244 2 30.4 24 1.6 -9.81266
245 1 32 22.4 0 -11.7621
246 3 33.6 24 1.6 -11.1271
247 1 35.2 22.4 0 -11.5942
248 2 36.8 24 1.6 -9.69809
249 3 38.4 22.4 0 -11.1049
250 2 40 24 1.6 -9.74143
251 3 41.6 22.4 0 -11.2257
252 2 43.2 24 1.6 -9.77292
253 3 44.8 22.4 0 -11.1552
254 1 46.4 24 1.6 -11.6748
255 3 48 22.4 0 -11.202
256 1 49.6 24 1.6 -11.7587
257 3 0 25.6 0 -11.2048
259 3 3.2 25.6 0 -11.3036
261 2 6.4 25.6 0 -9.84881
263 1 9.6 25.6 0 -11.7498
265 1 12.8 25.6 0 -11.6573
267 1 16 25.6 0 -11.6434
269 2 19.2 25.6 0 -9.81736
271 2 22.4 25.6 0 -9.69091
273 2 25.6 25.6 0 -9.82889
275 2 28.8 25.6 0 -9.85683
277 1 32 25.6 0 -11.7823
279 1 35.2 25.6 0 -11.7005
281 2 38.4 25.6 0 -9.74087
283 2 41.6 25.6 0 -9.72972
285 2 44.8 25.6 0 -9.7913
287 3 48 25.6 0 -11.2026
258 1 1.6 27.2 1.6 -11.8096
289 3 0 28.8 0 -11.1657
260 2 4.8 27.2 1.6 -9.79565
291 3 3.2 28.8 0 -11.2363
262 2 8 27.2 1.6 -9.65712
293 2 6.4 28.8 0 -9.72277
264 2 11.2 27.2 1.6 -9.5832
295 1 9.6 28.8 0 -11.542
266 2 14.4 27.2 1.6 -9.61552
297 1 12.8 28.8 0 -11.6691
268 3 17.6 27.2 1.6 -11.1805
299 1 16 28.8 0 -11.6979
270 2 20.8 27.2 1.6 -9.8426
301 2 19.2 28.8 0 -9.78792
272 3 24 27.2 1.6 -11.2877
303 1 22.4 28.8 0 -11.7328
305 1 25.6 28.8 0 -11.7846
274 2 27.2 27.2 1.6 -9.83822
307 1 28.8 28.8 0 -11.8094
276 3 30.4 27.2 1.6 -11.266
309 1 32 28.8 0 -11.8411
278 3 33.6 27.2 1.6 -11.206
311 1 35.2 28.8 0 -11.7296
280 2 36.8 27.2 1.6 -9.70588
313 2 38.4 28.8 0 -9.70098
282 1 40 27.2 1.6 -11.6488
315 2 41.6 28.8 0 -9.75176
284 2 43.2 27.2 1.6 -9.76078
317 2 44.8 28.8 0 -9.79583
286 2 46.4 27.2 1.6 -9.71966
319 2 48 28.8 0 -9.76308
288 1 49.6 27.2 1.6 -11.7919
290 1 1.6 30.4 1.6 -11.8415
321 2 0 32 0 -9.82716
292 1 4.8 30.4 1.6 -11.7826
323 3 3.2 32 0 -11.2928
294 1 8 30.4 1.6 -11.614
325 2 6.4 32 0 -9.7524
296 2 11.2 30.4 1.6 -9.69426
327 2 9.6 32 0 -9.73863
298 2 14.4 30.4 1.6 -9.69057
329 2 12.8 32 0 -9.76027
300 2 17.6 30.4 1.6 -9.72088
331 1 16 32 0 -11.6612
302 2 20.8 30.4 1.6 -9.74935
333 1 19.2 32 0 -11.7566
304 3 24 30.4 1.6 -11.1245
335 1 22.4 32 0 -11.8122
337 1 25.6 32 0 -11.8124
306 2 27.2 30.4 1.6 -9.70694
339 1 28.8 32 0 -11.7528
308 3 30.4 30.4 1.6 -11.2361
341 1 32 32 0 -11.7119
310 3 33.6 30.4 1.6 -11.2601
343 2 35.2 32 0 -9.72755
312 1 36.8 30.4 1.6 -11.6487
345 2 38.4 32 0 -9.62629
314 1 40 30.4 1.6 -11.6299
347 2 41.6 32 0 -9.75512
316 2 43.2 30.4 1.6 -9.75853
349 1 44.8 32 0 -11.7395
318 1 46.4 30.4 1.6 -11.6015
351 1 48 32 0 -11.6701
320 1 49.6 30.4 1.6 -11.6711
322 2 1.6 33.6 1.6 -9.88006
353 1 0 35.2 0 -11.8193
324 1 4.8 33.6 1.6 -11.7836
355 2 3.2 35.2 0 -9.82783
326 1 8 33.6 1.6 -11.7264
357 2 6.4 35.2 0 -9.72529
328 1 11.2 33.6 1.6 -11.7345
359 3 9.6 35.2 0 -11.1892
330 2 14.4 33.6 1.6 -9.66394
361 2 12.8 35.2 0 -9.66228
332 3 17.6 33.6 1.6 -11.084
363 1 16 35.2 0 -11.5939
334 3 20.8 33.6 1.6 -11.2045
365 1 19.2 35.2 0 -11.7823
336 3 24 33.6 1.6 -11.2423
367 1 22.4 35.2 0 -11.8415
369 1 25.6 35.2 0 -11.8417
338 3 27.2 33.6 1.6 -11.1645
371 1 28.8 35.2 0 -11.7506
340 2 30.4 33.6 1.6 -9.80661
373 1 32 35.2 0 -11.678
342 2 33.6 33.6 1.6 -9.85464
375 3 35.2 35.2 0 -11.2584
344 1 36.8 33.6 1.6 -11.7345
377 2 38.4 35.2 0 -9.80034
346 1 40 33.6 1.6 -11.6654
379 2 41.6 35.2 0 -9.75541
348 2 43.2 33.6 1.6 -9.83923
381 1 44.8 35.2 0 -11.7619
350 3 46.4 33.6 1.6 -11.2798
383 1 48 35.2 0 -11.8133
352 3 49.6 33.6 1.6 -11.3065
354 2 1.6 36.8 1.6 -9.82758
385 1 0 38.4 0 -11.7593
356 1 4.8 36.8 1.6 -11.6257
387 1 3.2 38.4 0 -11.6293
358 1 8 36.8 1.6 -11.6909
389 1 6.4 38.4 0 -11.4669
360 1 11.2 36.8 1.6 -11.7522
391 2 9.6 38.4 0 -9.72873
362 1 14.4 36.8 1.6 -11.676
393 3 12.8 38.4 0 -11.1657
364 2 17.6 36.8 1.6 -9.77928
395 3 16 38.4 0 -11.1961
366 3 20.8 36.8 1.6 -11.2995
397 2 19.2 38.4 0 -9.88251
368 3 24 36.8 1.6 -11.242
399 1 22.4 38.4 0 -11.8416
401 1 25.6 38.4 0 -11.8417
370 3 27.2 36.8 1.6 -11.2039
403 1 28.8 38.4 0 -11.8122
372 3 30.4 36.8 1.6 -11.2691
405 1 32 38.4 0 -11.7846
374 3 33.6 36.8 1.6 -11.3475
407 1 35.2 38.4 0 -11.8254
376 3 36.8 36.8 1.6 -11.2994
409 2 38.4 38.4 0 -9.79391
378 1 40 36.8 1.6 -11.6981
411 2 41.6 38.4 0 -9.77471
380 2 43.2 36.8 1.6 -9.8127
413 1 44.8 38.4 0 -11.7654
382 2 46.4 36.8 1.6 -9.84018
415 1 48 38.4 0 -11.7531
384 2 49.6 36.8 1.6 -9.8403
386 2 1.6 40 1.6 -9.83066
417 2 0 41.6 0 -9.82659
388 1 4.8 40 1.6 -11.5867
419 2 3.2 41.6 0 -9.83988
390 1 8 40 1.6 -11.6022
421 1 6.4 41.6 0 -11.6045
392 1 11.2 40 1.6 -11.7504
423 2 9.6 41.6 0 -9.759
394 1 14.4 40 1.6 -11.8117
425 3 12.8 41.6 0 -11.2042
396 1 17.6 40 1.6 -11.778
427 3 16 41.6 0 -11.2048
398 3 20.8 40 1.6 -11.3226
429 2 19.2 41.6 0 -9.85293
400 3 24 40 1.6 -11.242
431 1 22.4 41.6 0 -11.8134
433 1 25.6 41.6 0 -11.8417
402 3 27.2 40 1.6 -11.2417
435 1 28.8 41.6 0 -11.8417
404 3 30.4 40 1.6 -11.2036
437 1 32 41.6 0 -11.8122
406 2 33.6 40 1.6 -9.70717
439 1 35.2 41.6 0 -11.752
408 2 36.8 40 1.6 -9.76208
441 1 38.4 41.6 0 -11.7427
410 2 40 40 1.6 -9.79617
443 1 41.6 41.6 0 -11.7596
412 2 43.2 40 1.6 -9.8674
445 1 44.8 41.6 0 -11.7036
414 3 46.4 40 1.6 -11.1732
447 1 48 41.6 0 -11.6409
416 3 49.6 40 1.6 -11.2693
418 1 1.6 43.2 1.6 -11.8329
449 2 0 44.8 0 -9.80749
420 2 4.8 43.2 1.6 -9.77342
451 3 3.2 44.8 0 -11.3058
422 2 8 43.2 1.6 -9.74503
453 1 6.4 44.8 0 -11.6867
424 1 11.2 43.2 1.6 -11.8139
455 3 9.6 44.8 0 -11.3004
426 1 14.4 43.2 1.6 -11.8419
457 3 12.8 44.8 0 -11.2423
428 1 17.6 43.2 1.6 -11.7577
459 3 16 44.8 0 -11.266
430 3 20.8 43.2 1.6 -11.3003
461 2 19.2 44.8 0 -9.86828
432 3 24 43.2 1.6 -11.2039
463 1 22.4 44.8 0 -11.7862
465 1 25.6 44.8 0 -11.8141
434 3 27.2 43.2 1.6 -11.2417
467 1 28.8 44.8 0 -11.8411
436 3 30.4 43.2 1.6 -11.2417
469 1 32 44.8 0 -11.8415
438 3 33.6 43.2 1.6 -11.2057
471 1 35.2 44.8 0 -11.7726
440 3 36.8 43.2 1.6 -11.1512
473 1 38.4 44.8 0 -11.6971
442 2 40 43.2 1.6 -9.80451
475 1 41.6 44.8 0 -11.6799
444 2 43.2 43.2 1.6 -9.73348
477 2 44.8 44.8 0 -9.72301
446 1 46.4 43.2 1.6 -11.6788
479 2 48 44.8 0 -9.75669
448 1 49.6 43.2 1.6 -11.7163
450 1 1.6 46.4 1.6 -11.7841
481 3 0 48 0 -11.1651
452 2 4.8 46.4 1.6 -9.79862
483 3 3.2 48 0 -11.3032
454 2 8 46.4 1.6 -9.7621
485 2 6.4 48 0 -9.76276
456 1 11.2 46.4 1.6 -11.8419
487 3 9.6 48 0 -11.2001
458 1 14.4 46.4 1.6 -11.787
489 3 12.8 48 0 -11.2045
460 2 17.6 46.4 1.6 -9.87127
491 2 16 48 0 -9.88474
462 3 20.8 46.4 1.6 -11.2933
493 2 19.2 48 0 -9.89061
464 2 24 46.4 1.6 -9.75887
495 2 22.4 48 0 -9.80853
497 2 25.6 48 0 -9.73767
466 3 27.2 46.4 1.6 -11.1641
499 1 28.8 48 0 -11.8047
468 3 30.4 46.4 1.6 -11.3351
501 2 32 48 0 -9.91928
470 3 33.6 46.4 1.6 -11.3161
503 3 35.2 48 0 -11.2409
472 2 36.8 46.4 1.6 -9.8402
505 2 38.4 48 0 -9.81303
474 2 40 46.4 1.6 -9.76354
507 2 41.6 48 0 -9.66641
476 1 43.2 46.4 1.6 -11.6303
509 2 44.8 48 0 -9.72108
478 1 46.4 46.4 1.6 -11.7302
511 3 48 48 0 -11.1992
480 1 49.6 46.4 1.6 -11.7803
482 1 1.6 49.6 1.6 -11.7829
484 2 4.8 49.6 1.6 -9.79567
486 1 8 49.6 1.6 -11.786
488 1 11.2 49.6 1.6 -11.784
490 1 14.4 49.6 1.6 -11.7713
492 3 17.6 49.6 1.6 -11.3228
494 2 20.8 49.6 1.6 -9.83435
496 1 24 49.6 1.6 -11.6115
498 1 27.2 49.6 1.6 -11.5873
500 2 30.4 49.6 1.6 -9.84103
502 1 33.6 49.6 1.6 -11.8038
504 1 36.8 49.6 1.6 -11.7598
506 1 40 49.6 1.6 -11.6585
508 1 43.2 49.6 1.6 -11.6508
510 1 46.4 49.6 1.6 -11.751
512 1 49.6 49.6 1.6 -11.7841
513 2 0 0 3.2 -9.74968
514 2 1.6 1.6 4.8 -9.73786
515 2 3.2 0 3.2 -9.7685
516 1 4.8 1.6 4.8 -11.5915
517 2 6.4 0 3.2 -9.76418
518 1 8 1.6 4.8 -11.6871
519 3 9.6 0 3.2 -11.1222
520 1 11.2 1.6 4.8 -11.6457
521 2 12.8 0 3.2 -9.75037
522 2 14.4 1.6 4.8 -9.7058
523 2 16 0 3.2 -9.77203
524 2 17.6 1.6 4.8 -9.72151
525 1 19.2 0 3.2 -11.7594
526 2 20.8 1.6 4.8 -9.72949
527 2 22.4 0 3.2 -9.73108
528 1 24 1.6 4.8 -11.6519
529 2 25.6 0 3.2 -9.63317
530 1 27.2 1.6 4.8 -11.6957
531 2 28.8 0 3.2 -9.75932
532 1 30.4 1.6 4.8 -11.7561
533 3 32 0 3.2 -11.2666
534 1 33.6 1.6 4.8 -11.7808
535 3 35.2 0 3.2 -11.1651
536 1 36.8 1.6 4.8 -11.8121
537 3 38.4 0 3.2 -11.1257
538 1 40 1.6 4.8 -11.7838
539 2 41.6 0 3.2 -9.78508
540 1 43.2 1.6 4.8 -11.8212
541 3 44.8 0 3.2 -11.2583
542 1 46.4 1.6 4.8 -11.7846
543 3 48 0 3.2 -11.1997
544 1 49.6 1.6 4.8 -11.7826
545 3 0 3.2 3.2 -11.2938
546 1 1.6 4.8 4.8 -11.7371
547 3 3.2 3.2 3.2 -11.2682
548 1 4.8 4.8 4.8 -11.7285
549 3 6.4 3.2 3.2 -11.2011
550 2 8 4.8 4.8 -9.81055
551 3 9.6 3.2 3.2 -11.2417
552 1 11.2 4.8 4.8 -11.5594
553 3 12.8 3.2 3.2 -11.0722
554 2 14.4 4.8 4.8 -9.70058
555 1 16 3.2 3.2 -11.7074
556 3 17.6 4.8 4.8 -11.1249
557 1 19.2 3.2 3.2 -11.7287
558 3 20.8 4.8 4.8 -11.2511
559 2 22.4 3.2 3.2 -9.80621
560 1 24 4.8 4.8 -11.6461
561 2 25.6 3.2 3.2 -9.62657
562 1 27.2 4.8 4.8 -11.7035
563 3 28.8 3.2 3.2 -11.2011
564 1 30.4 4.8 4.8 -11.7557
565 3 32 3.2 3.2 -11.2051
566 1 33.6 4.8 4.8 -11.7825
567 3 35.2 3.2 3.2 -11.2733
568 1 36.8 4.8 4.8 -11.7988
569 2 38.4 3.2 3.2 -9.78185
570 1 40 4.8 4.8 -11.7191
571 3 41.6 3.2 3.2 -11.225
572 1 43.2 4.8 4.8 -11.7557
573 2 44.8 3.2 3.2 -9.81731
574 1 46.4 4.8 4.8 -11.7868
575 3 48 3.2 3.2 -11.2673
576 1 49.6 4.8 4.8 -11.7564
577 1 0 6.4 3.2 -11.7285
578 2 1.6 8 4.8 -9.76246
579 2 3.2 6.4 3.2 -9.78132
580 2 4.8 8 4.8 -9.75487
581 2 6.4 6.4 3.2 -9.86726
582 2 8 8 4.8 -9.78365
583 2 9.6 6.4 3.2 -9.78126
584 2 11.2 8 4.8 -9.66591
585 1 12.8 6.4 3.2 -11.6944
586 3 14.4 8 4.8 -11.1586
587 1 16 6.4 3.2 -11.7192
588 3 17.6 8 4.8 -11.197
589 1 19.2 6.4 3.2 -11.7549
590 2 20.8 8 4.8 -9.77643
591 2 22.4 6.4 3.2 -9.79267
592 2 24 8 4.8 -9.70892
593 1 25.6 6.4 3.2 -11.5982
594 2 27.2 8 4.8 -9.7762
595 2 28.8 6.4 3.2 -9.83915
596 1 30.4 8 4.8 -11.7591
597 3 32 6.4 3.2 -11.2353
598 2 33.6 8 4.8 -9.79486
599 3 35.2 6.4 3.2 -11.3405
600 2 36.8 8 4.8 -9.77873
601 2 38.4 6.4 3.2 -9.71042
602 1 40 8 4.8 -11.582
603 2 41.6 6.4 3.2 -9.66615
604 1 43.2 8 4.8 -11.7587
605 2 44.8 6.4 3.2 -9.78595
606 1 46.4 8 4.8 -11.7615
607 2 48 6.4 3.2 -9.78371
608 2 49.6 8 4.8 -9.6992
609 1 0 9.6 3.2 -11.7194
610 3 1.6 11.2 4.8 -11.0843
611 1 3.2 9.6 3.2 -11.7583
612 2 4.8 11.2 4.8 -9.6798
613 1 6.4 9.6 3.2 -11.7287
614 3 8 11.2 4.8 -11.1254
615 1 9.6 9.6 3.2 -11.7563
616 2 11.2 11.2 4.8 -9.74652
617 1 12.8 9.6 3.2 -11.783
618 2 14.4 11.2 4.8 -9.73295
619 1 16 9.6 3.2 -11.8118
620 3 17.6 11.2 4.8 -11.1588
621 1 19.2 9.6 3.2 -11.7522
622 2 20.8 11.2 4.8 -9.64852
623 1 22.4 9.6 3.2 -11.7199
624 2 24 11.2 4.8 -9.75181
625 1 25.6 9.6 3.2 -11.7021
626 2 27.2 11.2 4.8 -9.79929
627 3 28.8 9.6 3.2 -11.2856
628 1 30.4 11.2 4.8 -11.6868
629 2 32 9.6 3.2 -9.76742
630 2 33.6 11.2 4.8 -9.73232
631 1 35.2 9.6 3.2 -11.7344
632 3 36.8 11.2 4.8 -11.1591
633 1 38.4 9.6 3.2 -11.6402
634 2 40 11.2 4.8 -9.77329
635 2 41.6 9.6 3.2 -9.75502
636 2 43.2 11.2 4.8 -9.80391
637 2 44.8 9.6 3.2 -9.78445
638 2 46.4 11.2 4.8 -9.7515
639 1 48 9.6 3.2 -11.6816
640 2 49.6 11.2 4.8 -9.69197
641 1 0 12.8 3.2 -11.7264
642 2 1.6 14.4 4.8 -9.83281
643 1 3.2 12.8 3.2 -11.7293
644 2 4.8 14.4 4.8 -9.72342
645 1 6.4 12.8 3.2 -11.7201
646 3 8 14.4 4.8 -11.1243
647 1 9.6 12.8 3.2 -11.8121
648 3 11.2 14.4 4.8 -11.2028
649 2 12.8 12.8 3.2 -9.69971
650 1 14.4 14.4 4.8 -11.4849
651 1 16 12.8 3.2 -11.654
652 2 17.6 14.4 4.8 -9.69804
653 1 19.2 12.8 3.2 -11.7287
654 2 20.8 14.4 4.8 -9.69992
655 1 22.4 12.8 3.2 -11.734
656 2 24 14.4 4.8 -9.76475
657 2 25.6 12.8 3.2 -9.78995
658 1 27.2 14.4 4.8 -11.721
659 3 28.8 12.8 3.2 -11.1156
660 1 30.4 14.4 4.8 -11.7184
661 1 32 12.8 3.2 -11.5179
662 2 33.6 14.4 4.8 -9.75324
663 1 35.2 12.8 3.2 -11.7139
664 3 36.8 14.4 4.8 -11.2686
665 2 38.4 12.8 3.2 -9.68292
666 2 40 14.4 4.8 -9.59377
667 1 41.6 12.8 3.2 -11.6411
668 2 43.2 14.4 4.8 -9.61552
669 1 44.8 12.8 3.2 -11.6969
670 2 46.4 14.4 4.8 -9.7463
671 1 48 12.8 3.2 -11.6905
672 3 49.6 14.4 4.8 -11.2407
673 2 0 16 3.2 -9.80861
674 1 1.6 17.6 4.8 -11.7656
675 2 3.2 16 3.2 -9.85371
676 2 4.8 17.6 4.8 -9.75506
677 1 6.4 16 3.2 -11.734
678 2 8 17.6 4.8 -9.72125
679 1 9.6 16 3.2 -11.7516
680 2 11.2 17.6 4.8 -9.83704
681 1 12.8 16 3.2 -11.6978
682 2 14.4 17.6 4.8 -9.69451
683 1 16 16 3.2 -11.5588
684 1 17.6 17.6 4.8 -11.6739
685 2 19.2 16 3.2 -9.75827
686 1 20.8 17.6 4.8 -11.7397
687 2 22.4 16 3.2 -9.78988
688 2 24 17.6 4.8 -9.78539
689 2 25.6 16 3.2 -9.7065
690 1 27.2 17.6 4.8 -11.7594
691 3 28.8 16 3.2 -11.1285
692 1 30.4 17.6 4.8 -11.7496
693 2 32 16 3.2 -9.67317
694 1 33.6 17.6 4.8 -11.7617
695 1 35.2 16 3.2 -11.7676
696 2 36.8 17.6 4.8 -9.86506
697 1 38.4 16 3.2 -11.7238
698 2 40 17.6 4.8 -9.75237
699 1 41.6 16 3.2 -11.6171
700 3 43.2 17.6 4.8 -11.04
701 1 44.8 16 3.2 -11.7565
702 2 46.4 17.6 4.8 -9.78606
703 2 48 16 3.2 -9.79451
704 1 49.6 17.6 4.8 -11.7423
705 2 0 19.2 3.2 -9.66008
706 1 1.6 20.8 4.8 -11.6345
707 2 3.2 19.2 3.2 -9.78179
708 2 4.8 20.8 4.8 -9.7656
709 1 6.4 19.2 3.2 -11.7324
710 3 8 20.8 4.8 -11.1841
711 1 9.6 19.2 3.2 -11.7869
712 3 11.2 20.8 4.8 -11.1833
713 1 12.8 19.2 3.2 -11.7329
714 2 14.4 20.8 4.8 -9.86731
715 2 16 19.2 3.2 -9.75778
716 1 17.6 20.8 4.8 -11.7621
717 3 19.2 19.2 3.2 -11.1666
718 1 20.8 20.8 4.8 -11.7917
719 3 22.4 19.2 3.2 -11.2647
720 2 24 20.8 4.8 -9.87728
721 3 25.6 19.2 3.2 -11.2893
722 2 27.2 20.8 4.8 -9.7876
723 3 28.8 19.2 3.2 -11.2367
724 1 30.4 20.8 4.8 -11.6243
725 2 32 19.2 3.2 -9.78064
726 2 33.6 20.8 4.8 -9.81348
727 2 35.2 19.2 3.2 -9.82519
728 2 36.8 20.8 4.8 -9.85426
729 2 38.4 19.2 3.2 -9.82739
730 2 40 20.8 4.8 -9.74303
731 1 41.6 19.2 3.2 -11.6697
732 2 43.2 20.8 4.8 -9.69174
733 1 44.8 19.2 3.2 -11.6685
734 2 46.4 20.8 4.8 -9.72155
735 2 48 19.2 3.2 -9.7006
736 1 49.6 20.8 4.8 -11.73
737 2 0 22.4 3.2 -9.59126
738 1 1.6 24 4.8 -11.639
739 1 3.2 22.4 3.2 -11.5769
740 2 4.8 24 4.8 -9.72547
741 1 6.4 22.4 3.2 -11.6931
742 2 8 24 4.8 -9.75384
743 1 9.6 22.4 3.2 -11.7534
744 2 11.2 24 4.8 -9.78219
745 1 12.8 22.4 3.2 -11.731
746 3 14.4 24 4.8 -11.189
747 2 16 22.4 3.2 -9.8086
748 2 17.6 24 4.8 -9.83698
749 3 19.2 22.4 3.2 -11.2303
750 2 20.8 24 4.8 -9.87924
751 2 22.4 22.4 3.2 -9.83759
752 2 24 24 4.8 -9.86708
753 2 25.6 22.4 3.2 -9.81253
754 2 27.2 24 4.8 -9.75639
755 2 28.8 22.4 3.2 -9.79966
756 2 30.4 24 4.8 -9.65857
757 1 32 22.4 3.2 -11.6995
758 3 33.6 24 4.8 -11.1629
759 1 35.2 22.4 3.2 -11.7374
760 2 36.8 24 4.8 -9.83487
761 2 38.4 22.4 3.2 -9.78926
762 2 40 24 4.8 -9.78203
763 1 41.6 22.4 3.2 -11.6636
764 3 43.2 24 4.8 -11.0767
765 1 44.8 22.4 3.2 -11.6301
766 2 46.4 24 4.8 -9.80525
767 2 48 22.4 3.2 -9.75649
768 2 49.6 24 4.8 -9.80063
769 2 0 25.6 3.2 -9.75194
771 2 3.2 25.6 3.2 -9.69872
773 1 6.4 25.6 3.2 -11.646
775 1 9.6 25.6 3.2 -11.6292
777 1 12.8 25.6 3.2 -11.6911
779 1 16 25.6 3.2 -11.7279
781 2 19.2 25.6 3.2 -9.83501
783 2 22.4 25.6 3.2 -9.85678
785 2 25.6 25.6 3.2 -9.84529
787 2 28.8 25.6 3.2 -9.87015
789 1 32 25.6 3.2 -11.7875
791 1 35.2 25.6 3.2 -11.7498
793 1 38.4 25.6 3.2 -11.706
795 1 41.6 25.6 3.2 -11.6791
797 1 44.8 25.6 3.2 -11.6386
799 2 48 25.6 3.2 -9.83877
770 1 1.6 27.2 4.8 -11.7245
801 3 0 28.8 3.2 -11.2026
772 1 4.8 27.2 4.8 -11.7003
803 3 3.2 28.8 3.2 -11.2394
774 1 8 27.2 4.8 -11.5607
805 2 6.4 28.8 3.2 -9.74089
776 2 11.2 27.2 4.8 -9.62524
807 1 9.6 28.8 3.2 -11.5453
778 3 14.4 27.2 4.8 -11.1246
809 1 12.8 28.8 3.2 -11.6661
780 3 17.6 27.2 4.8 -11.2371
811 1 16 28.8 3.2 -11.7213
782 3 20.8 27.2 4.8 -11.3025
813 1 19.2 28.8 3.2 -11.8147
784 3 24 27.2 4.8 -11.2615
815 1 22.4 28.8 3.2 -11.7801
817 1 25.6 28.8 3.2 -11.7554
786 2 27.2 27.2 4.8 -9.81144
819 1 28.8 28.8 3.2 -11.7561
788 2 30.4 27.2 4.8 -9.72295
821 1 32 28.8 3.2 -11.8128
790 3 33.6 27.2 4.8 -11.1249
823 1 35.2 28.8 3.2 -11.7323
792 3 36.8 27.2 4.8 -11.2018
825 2 38.4 28.8 3.2 -9.69348
794 3 40 27.2 4.8 -11.1502
827 2 41.6 28.8 3.2 -9.73969
796 2 43.2 27.2 4.8 -9.75985
829 1 44.8 28.8 3.2 -11.6008
798 2 46.4 27.2 4.8 -9.80903
831 2 48 28.8 3.2 -9.72243
800 2 49.6 27.2 4.8 -9.80363
802 1 1.6 30.4 4.8 -11.7806
833 3 0 32 3.2 -11.2584
804 1 4.8 30.4 4.8 -11.8421
835 3 3.2 32 3.2 -11.3094
806 2 8 30.4 4.8 -9.6938
837 3 6.4 32 3.2 -11.1584
808 2 11.2 30.4 4.8 -9.75571
839 2 9.6 32 3.2 -9.76235
810 2 14.4 30.4 4.8 -9.78211
841 2 12.8 32 3.2 -9.81302
812 3 17.6 30.4 4.8 -11.1251
843 1 16 32 3.2 -11.7293
814 3 20.8 30.4 4.8 -11.1648
845 1 19.2 32 3.2 -11.7808
816 2 24 30.4 4.8 -9.73533
847 1 22.4 32 3.2 -11.7846
849 1 25.6 32 3.2 -11.7846
818 3 27.2 30.4 4.8 -11.124
851 1 28.8 32 3.2 -11.7851
820 3 30.4 30.4 4.8 -11.2276
853 2 32 32 3.2 -9.87056
822 2 33.6 30.4 4.8 -9.83823
855 2 35.2 32 3.2 -9.78565
824 2 36.8 30.4 4.8 -9.78362
857 2 38.4 32 3.2 -9.68926
826 1 40 30.4 4.8 -11.7007
859 2 41.6 32 3.2 -9.6907
828 1 43.2 30.4 4.8 -11.6408
861 2 44.8 32 3.2 -9.75022
830 1 46.4 30.4 4.8 -11.6297
863 2 48 32 3.2 -9.77453
832 1 49.6 30.4 4.8 -11.692
834 1 1.6 33.6 4.8 -11.8129
865 2 0 35.2 3.2 -9.85814
836 1 4.8 33.6 4.8 -11.812
867 3 3.2 35.2 3.2 -11.2645
838 1 8 33.6 4.8 -11.7856
869 2 6.4 35.2 3.2 -9.70728
840 1 11.2 33.6 4.8 -11.7623
871 3 9.6 35.2 3.2 -11.1254
842 2 14.4 33.6 4.8 -9.75368
873 2 12.8 35.2 3.2 -9.7884
844 3 17.6 33.6 4.8 -11.1263
875 1 16 35.2 3.2 -11.6727
846 3 20.8 33.6 4.8 -11.1651
877 1 19.2 35.2 3.2 -11.7875
848 3 24 33.6 4.8 -11.2045
879 1 22.4 35.2 3.2 -11.8122
881 1 25.6 35.2 3.2 -11.8124
850 3 27.2 33.6 4.8 -11.1241
883 1 28.8 35.2 3.2 -11.7986
852 2 30.4 33.6 4.8 -9.8276
885 3 32 35.2 3.2 -11.3517
854 1 33.6 33.6 4.8 -11.8145
887 2 35.2 35.2 3.2 -9.93917
856 1 36.8 33.6 4.8 -11.7853
889 3 38.4 35.2 3.2 -11.1477
858 1 40 33.6 4.8 -11.6881
891 2 41.6 35.2 3.2 -9.72399
860 1 43.2 33.6 4.8 -11.7259
893 2 44.8 35.2 3.2 -9.85565
862 2 46.4 33.6 4.8 -9.79271
895 2 48 35.2 3.2 -9.84492
864 1 49.6 33.6 4.8 -11.748
866 1 1.6 36.8 4.8 -11.8139
897 2 0 38.4 3.2 -9.8583
868 1 4.8 36.8 4.8 -11.8122
899 3 3.2 38.4 3.2 -11.2354
870 1 8 36.8 4.8 -11.8124
901 3 6.4 38.4 3.2 -11.039
872 1 11.2 36.8 4.8 -11.8175
903 3 9.6 38.4 3.2 -11.166
874 2 14.4 36.8 4.8 -9.7434
905 3 12.8 38.4 3.2 -11.2026
876 2 17.6 36.8 4.8 -9.72785
907 2 16 38.4 3.2 -9.79132
878 2 20.8 36.8 4.8 -9.78159
909 2 19.2 38.4 3.2 -9.84542
880 3 24 36.8 4.8 -11.1655
911 1 22.4 38.4 3.2 -11.8139
913 1 25.6 38.4 3.2 -11.8124
882 2 27.2 36.8 4.8 -9.73522
915 1 28.8 38.4 3.2 -11.8121
884 3 30.4 36.8 4.8 -11.3209
917 1 32 38.4 3.2 -11.8243
886 2 33.6 36.8 4.8 -9.93522
919 1 35.2 38.4 3.2 -11.6877
888 2 36.8 36.8 4.8 -9.77668
921 1 38.4 38.4 3.2 -11.5992
890 1 40 36.8 4.8 -11.6229
923 2 41.6 38.4 3.2 -9.68815
892 1 43.2 36.8 4.8 -11.6967
925 2 44.8 38.4 3.2 -9.80771
894 1 46.4 36.8 4.8 -11.7299
927 2 48 38.4 3.2 -9.79606
896 1 49.6 36.8 4.8 -11.6957
898 1 1.6 40 4.8 -11.7801
929 3 0 41.6 3.2 -11.2589
900 1 4.8 40 4.8 -11.7841
931 3 3.2 41.6 3.2 -11.2327
902 1 8 40 4.8 -11.7803
933 2 6.4 41.6 3.2 -9.66982
904 1 11.2 40 4.8 -11.7853
935 2 9.6 41.6 3.2 -9.74982
906 1 14.4 40 4.8 -11.756
937 3 12.8 41.6 3.2 -11.2361
908 1 17.6 40 4.8 -11.7138
939 3 16 41.6 3.2 -11.2276
910 2 20.8 40 4.8 -9.81714
941 2 19.2 41.6 3.2 -9.79384
912 3 24 40 4.8 -11.2039
943 1 22.4 41.6 3.2 -11.8419
945 1 25.6 41.6 3.2 -11.8417
914 3 27.2 40 4.8 -11.2033
947 1 28.8 41.6 3.2 -11.8417
916 3 30.4 40 4.8 -11.2426
949 1 32 41.6 3.2 -11.8122
918 3 33.6 40 4.8 -11.1535
951 1 35.2 41.6 3.2 -11.6882
920 1 36.8 40 4.8 -11.6085
953 3 38.4 41.6 3.2 -11.1324
922 1 40 40 4.8 -11.6278
955 2 41.6 41.6 3.2 -9.78413
924 1 43.2 40 4.8 -11.6957
957 2 44.8 41.6 3.2 -9.85229
926 1 46.4 40 4.8 -11.7597
959 2 48 41.6 3.2 -9.85685
928 1 49.6 40 4.8 -11.7092
930 1 1.6 43.2 4.8 -11.7285
961 3 0 44.8 3.2 -11.198
932 1 4.8 43.2 4.8 -11.6698
963 2 3.2 44.8 3.2 -9.78825
934 1 8 43.2 4.8 -11.7339
965 1 6.4 44.8 3.2 -11.6423
936 1 11.2 43.2 4.8 -11.7547
967 3 9.6 44.8 3.2 -11.2242
938 2 14.4 43.2 4.8 -9.79567
969 3 12.8 44.8 3.2 -11.2397
940 2 17.6 43.2 4.8 -9.75723
971 2 16 44.8 3.2 -9.79658
942 3 20.8 43.2 4.8 -11.2397
973 1 19.2 44.8 3.2 -11.7656
944 3 24 43.2 4.8 -11.242
975 1 22.4 44.8 3.2 -11.8117
977 1 25.6 44.8 3.2 -11.8122
946 3 27.2 43.2 4.8 -11.2414
979 1 28.8 44.8 3.2 -11.8415
948 3 30.4 43.2 4.8 -11.242
981 1 32 44.8 3.2 -11.8414
950 3 33.6 43.2 4.8 -11.2323
983 1 35.2 44.8 3.2 -11.7053
952 1 36.8 43.2 4.8 -11.6803
985 2 38.4 44.8 3.2 -9.83777
954 1 40 43.2 4.8 -11.758
987 2 41.6 44.8 3.2 -9.76879
956 1 43.2 43.2 4.8 -11.7472
989 2 44.8 44.8 3.2 -9.86821
958 3 46.4 43.2 4.8 -11.2311
991 3 48 44.8 3.2 -11.2211
960 1 49.6 43.2 4.8 -11.7586
962 1 1.6 46.4 4.8 -11.7272
993 3 0 48 3.2 -11.1588
964 2 4.8 46.4 4.8 -9.76071
995 2 3.2 48 3.2 -9.81264
966 2 8 46.4 4.8 -9.82707
997 1 6.4 48 3.2 -11.7137
968 1 11.2 46.4 4.8 -11.7836
999 2 9.6 48 3.2 -9.86751
970 1 14.4 46.4 4.8 -11.695
1001 3 12.8 48 3.2 -11.126
972 2 17.6 46.4 4.8 -9.72898
1003 2 16 48 3.2 -9.77205
974 3 20.8 46.4 4.8 -11.1654
1005 1 19.2 48 3.2 -11.7831
976 3 24 46.4 4.8 -11.1654
1007 1 22.4 48 3.2 -11.7005
1009 1 25.6 48 3.2 -11.6374
978 3 27.2 46.4 4.8 -11.2057
1011 1 28.8 48 3.2 -11.7198
980 3 30.4 46.4 4.8 -11.2657
1013 2 32 48 3.2 -9.88245
982 2 33.6 46.4 4.8 -9.88435
1015 2 35.2 48 3.2 -9.81225
984 1 36.8 46.4 4.8 -11.7282
1017 2 38.4 48 3.2 -9.76045
986 2 40 46.4 4.8 -9.73838
1019 1 41.6 48 3.2 -11.5292
988 2 43.2 46.4 4.8 -9.70306
1021 2 44.8 48 3.2 -9.72523
990 2 46.4 46.4 4.8 -9.85699
1023 2 48 48 3.2 -9.81764
992 2 49.6 46.4 4.8 -9.75556
994 1 1.6 49.6 4.8 -11.6884
996 2 4.8 49.6 4.8 -9.73509
998 3 8 49.6 4.8 -11.1298
1000 1 11.2 49.6 4.8 -11.7485
1002 1 14.4 49.6 4.8 -11.6893
1004 3 17.6 49.6 4.8 -11.1085
1006 2 20.8 49.6 4.8 -9.69197
1008 2 24 49.6 4.8 -9.67221
1010 2 27.2 49.6 4.8 -9.72808
1012 2 30.4 49.6 4.8 -9.85486
1014 1 33.6 49.6 4.8 -11.7903
1016 1 36.8 49.6 4.8 -11.7803
1018 1 40 49.6 4.8 -11.6696
1020 2 43.2 49.6 4.8 -9.74081
1022 2 46.4 49.6 4.8 -9.788
1024 1 49.6 49.6 4.8 -11.7098
1025 2 0 0 6.4 -9.79214
1026 2 1.6 1.6 8 -9.84347
1027 1 3.2 0 6.4 -11.5855
1028 1 4.8 1.6 8 -11.6314
1029 1 6.4 0 6.4 -11.5448
1030 2 8 1.6 8 -9.75208
1031 1 9.6 0 6.4 -11.633
1032 2 11.2 1.6 8 -9.70498
1033 2 12.8 0 6.4 -9.71137
1034 3 14.4 1.6 8 -11.2018
1035 1 16 0 6.4 -11.7381
1036 3 17.6 1.6 8 -11.1989
1037 1 19.2 0 6.4 -11.6955
1038 2 20.8 1.6 8 -9.82035
1039 1 22.4 0 6.4 -11.689
1040 2 24 1.6 8 -9.76938
1041 2 25.6 0 6.4 -9.70121
1042 1 27.2 1.6 8 -11.647
1043 2 28.8 0 6.4 -9.72786
1044 1 30.4 1.6 8 -11.6639
1045 2 32 0 6.4 -9.78148
1046 1 33.6 1.6 8 -11.7198
1047 3 35.2 0 6.4 -11.2048
1048 1 36.8 1.6 8 -11.7508
1049 3 38.4 0 6.4 -11.206
1050 1 40 1.6 8 -11.75
1051 3 41.6 0 6.4 -11.1567
1052 1 43.2 1.6 8 -11.7561
1053 2 44.8 0 6.4 -9.83825
1054 1 46.4 1.6 8 -11.7301
1055 2 48 0 6.4 -9.70097
1056 1 49.6 1.6 8 -11.7568
1057 3 0 3.2 6.4 -11.2649
1058 1 1.6 4.8 8 -11.8121
1059 2 3.2 3.2 6.4 -9.72602
1060 1 4.8 4.8 8 -11.771
1061 2 6.4 3.2 6.4 -9.77101
1062 3 8 4.8 8 -11.3355
1063 2 9.6 3.2 6.4 -9.68648
1064 2 11.2 4.8 8 -9.69318
1065 1 12.8 3.2 6.4 -11.6697
1066 3 14.4 4.8 8 -11.0832
1067 1 16 3.2 6.4 -11.7499
1068 3 17.6 4.8 8 -11.1243
1069 1 19.2 3.2 6.4 -11.7565
1070 2 20.8 4.8 8 -9.83695
1071 2 22.4 3.2 6.4 -9.77567
1072 2 24 4.8 8 -9.85352
1073 2 25.6 3.2 6.4 -9.78138
1074 2 27.2 4.8 8 -9.80676
1075 3 28.8 3.2 6.4 -11.1892
1076 2 30.4 4.8 8 -9.80058
1077 2 32 3.2 6.4 -9.72079
1078 1 33.6 4.8 8 -11.6767
1079 3 35.2 3.2 6.4 -11.1249
1080 1 36.8 4.8 8 -11.5918
1081 3 38.4 3.2 6.4 -11.2008
1082 2 40 4.8 8 -9.7367
1083 3 41.6 3.2 6.4 -11.2404
1084 1 43.2 4.8 8 -11.7276
1085 3 44.8 3.2 6.4 -11.1654
1086 1 46.4 4.8 8 -11.8419
1087 3 48 3.2 6.4 -11.2057
1088 1 49.6 4.8 8 -11.8112
1089 2 0 6.4 6.4 -9.73345
1090 2 1.6 8 8 -9.83347
1091 2 3.2 6.4 6.4 -9.78394
1092 2 4.8 8 8 -9.85567
1093 2 6.4 6.4 6.4 -9.83272
1094 2 8 8 8 -9.78077
1095 1 9.6 6.4 6.4 -11.7007
1096 3 11.2 8 8 -11.0829
1097 1 12.8 6.4 6.4 -11.6137
1098 2 14.4 8 8 -9.71877
1099 1 16 6.4 6.4 -11.7859
1100 2 17.6 8 8 -9.68811
1101 1 19.2 6.4 6.4 -11.7576
1102 2 20.8 8 8 -9.69962
1103 2 22.4 6.4 6.4 -9.83143