ITEM: TIMESTEP
0
ITEM: NUMBER OF ATOMS
8192
ITEM: BOX BOUNDS pp pp pp
0.0000000000000000e+00 5.1200000000000003e+01
0.0000000000000000e+00 5.1200000000000003e+01
0.0000000000000000e+00 5.1200000000000003e+01
ITEM: ATOMS id type x y z c_eng
1 2 0 0 0 -9.67251
2 2 1.6 1.6 1.6 -9.78465
3 2 3.2 0 0 -9.73008
4 2 4.8 1.6 1.6 -9.79586
5 2 6.4 0 0 -9.73166
6 1 8 1.6 1.6 -11.6819
7 2 9.6 0 0 -9.59846
8 1 11.2 1.6 1.6 -11.626
9 2 12.8 0 0 -9.52689
10 1 14.4 1.6 1.6 -11.6974
11 3 16 0 0 -11.2703
12 2 17.6 1.6 1.6 -9.7429
13 1 19.2 0 0 -11.6977
14 2 20.8 1.6 1.6 -9.76551
15 3 22.4 0 0 -11.2651
16 2 24 1.6 1.6 -9.85292
17 1 25.6 0 0 -11.5171
18 1 27.2 1.6 1.6 -11.665
19 1 28.8 0 0 -11.4981
20 3 30.4 1.6 1.6 -11.1975
21 2 32 0 0 -9.76007
22 1 33.6 1.6 1.6 -11.6827
23 2 35.2 0 0 -9.55493
24 1 36.8 1.6 1.6 -11.6798
25 1 38.4 0 0 -11.3054
26 1 40 1.6 1.6 -11.5558
27 1 41.6 0 0 -11.4418
28 1 43.2 1.6 1.6 -11.4693
29 2 44.8 0 0 -9.6875
30 1 46.4 1.6 1.6 -11.5397
31 2 48 0 0 -9.73875
32 2 49.6 1.6 1.6 -9.79415
33 1 0 3.2 0 -11.6948
34 3 1.6 4.8 1.6 -11.1625
35 1 3.2 3.2 0 -11.5756
36 2 4.8 4.8 1.6 -9.77662
37 2 6.4 3.2 0 -9.6324
38 1 8 4.8 1.6 -11.7306
39 2 9.6 3.2 0 -9.64886
40 1 11.2 4.8 1.6 -11.7905
41 2 12.8 3.2 0 -9.65605
42 2 14.4 4.8 1.6 -9.87209
43 2 16 3.2 0 -9.86956
44 2 17.6 4.8 1.6 -9.73851
45 1 19.2 3.2 0 -11.6517
46 2 20.8 4.8 1.6 -9.72157
47 3 22.4 3.2 0 -11.214
48 1 24 4.8 1.6 -11.7448
49 3 25.6 3.2 0 -11.2133
50 3 27.2 4.8 1.6 -11.2107
51 2 28.8 3.2 0 -9.81672
52 1 30.4 4.8 1.6 -11.7336
53 2 32 3.2 0 -9.72637
54 1 33.6 4.8 1.6 -11.6297
55 2 35.2 3.2 0 -9.62715
56 2 36.8 4.8 1.6 -9.76315
57 3 38.4 3.2 0 -11.0334
58 1 40 4.8 1.6 -11.6893
59 2 41.6 3.2 0 -9.72863
60 2 43.2 4.8 1.6 -9.81842
61 1 44.8 3.2 0 -11.6562
62 2 46.4 4.8 1.6 -9.83431
63 2 48 3.2 0 -9.74129
64 3 49.6 4.8 1.6 -11.3271
65 1 0 6.4 0 -11.7879
66 2 1.6 8 1.6 -9.85566
67 1 3.2 6.4 0 -11.762
68 2 4.8 8 1.6 -9.85721
69 2 6.4 6.4 0 -9.797
70 1 8 8 1.6 -11.7074
71 3 9.6 6.4 0 -11.3114
72 3 11.2 8 1.6 -11.4203
73 3 12.8 6.4 0 -11.4141
74 3 14.4 8 1.6 -11.3458
75 1 16 6.4 0 -11.7492
76 2 17.6 8 1.6 -9.72689
77 1 19.2 6.4 0 -11.6587
78 2 20.8 8 1.6 -9.88536
79 1 22.4 6.4 0 -11.6457
80 2 24 8 1.6 -9.87845
81 2 25.6 6.4 0 -9.80592
82 3 27.2 8 1.6 -11.3366
83 2 28.8 6.4 0 -9.86855
84 2 30.4 8 1.6 -9.74121
85 3 32 6.4 0 -11.0207
86 1 33.6 8 1.6 -11.5188
87 1 35.2 6.4 0 -11.4211
88 2 36.8 8 1.6 -9.75423
89 1 38.4 6.4 0 -11.5035
90 1 40 8 1.6 -11.6763
91 1 41.6 6.4 0 -11.6775
92 3 43.2 8 1.6 -11.3793
93 1 44.8 6.4 0 -11.7629
94 3 46.4 8 1.6 -11.3382
95 1 48 6.4 0 -11.7774
96 3 49.6 8 1.6 -11.2885
97 1 0 9.6 0 -11.7896
98 3 1.6 11.2 1.6 -11.2296
99 2 3.2 9.6 0 -9.7263
100 2 4.8 11.2 1.6 -9.6687
101 1 6.4 9.6 0 -11.6436
102 2 8 11.2 1.6 -9.76716
103 2 9.6 9.6 0 -9.79433
104 2 11.2 11.2 1.6 -9.79896
105 3 12.8 9.6 0 -11.3383
106 2 14.4 11.2 1.6 -9.74245
107 1 16 9.6 0 -11.5703
108 1 17.6 11.2 1.6 -11.5123
109 1 19.2 9.6 0 -11.6564
110 3 20.8 11.2 1.6 -11.277
111 3 22.4 9.6 0 -11.3486
112 2 24 11.2 1.6 -9.83715
113 2 25.6 9.6 0 -9.87681
114 1 27.2 11.2 1.6 -11.7125
115 1 28.8 9.6 0 -11.6827
116 1 30.4 11.2 1.6 -11.6476
117 1 32 9.6 0 -11.566
118 3 33.6 11.2 1.6 -11.1872
119 2 35.2 9.6 0 -9.66876
120 3 36.8 11.2 1.6 -11.389
121 2 38.4 9.6 0 -9.84221
122 1 40 11.2 1.6 -11.6961
123 2 41.6 9.6 0 -9.79237
124 2 43.2 11.2 1.6 -9.75389
125 1 44.8 9.6 0 -11.7605
126 2 46.4 11.2 1.6 -9.85078
127 1 48 9.6 0 -11.725
128 2 49.6 11.2 1.6 -9.87598
129 2 0 12.8 0 -9.80311
130 2 1.6 14.4 1.6 -9.81526
131 1 3.2 12.8 0 -11.7219
132 2 4.8 14.4 1.6 -9.72945
133 1 6.4 12.8 0 -11.6172
134 3 8 14.4 1.6 -11.3006
135 1 9.6 12.8 0 -11.6805
136 3 11.2 14.4 1.6 -11.1912
137 1 12.8 12.8 0 -11.6294
138 2 14.4 14.4 1.6 -9.85402
139 1 16 12.8 0 -11.5758
140 1 17.6 14.4 1.6 -11.6476
141 1 19.2 12.8 0 -11.5422
142 2 20.8 14.4 1.6 -9.84381
143 3 22.4 12.8 0 -11.2377
144 2 24 14.4 1.6 -9.88081
145 3 25.6 12.8 0 -11.4242
146 2 27.2 14.4 1.6 -9.86275
147 3 28.8 12.8 0 -11.2588
148 1 30.4 14.4 1.6 -11.7445
149 2 32 12.8 0 -9.81653
150 3 33.6 14.4 1.6 -11.275
151 1 35.2 12.8 0 -11.8119
152 2 36.8 14.4 1.6 -9.84119
153 1 38.4 12.8 0 -11.6367
154 1 40 14.4 1.6 -11.6212
155 1 41.6 12.8 0 -11.586
156 1 43.2 14.4 1.6 -11.5357
157 1 44.8 12.8 0 -11.5316
158 1 46.4 14.4 1.6 -11.5825
159 2 48 12.8 0 -9.74323
160 2 49.6 14.4 1.6 -9.81458
161 2 0 16 0 -9.74333
162 1 1.6 17.6 1.6 -11.4438
163 2 3.2 16 0 -9.75931
164 1 4.8 17.6 1.6 -11.5095
165 3 6.4 16 0 -11.3683
166 2 8 17.6 1.6 -9.83082
167 1 9.6 16 0 -11.7795
168 3 11.2 17.6 1.6 -11.2626
169 2 12.8 16 0 -9.71209
170 3 14.4 17.6 1.6 -11.21
171 3 16 16 0 -11.2225
172 1 17.6 17.6 1.6 -11.6954
173 2 19.2 16 0 -9.7344
174 1 20.8 17.6 1.6 -11.7522
175 1 22.4 16 0 -11.547
176 2 24 17.6 1.6 -9.79419
177 3 25.6 16 0 -11.3603
178 2 27.2 17.6 1.6 -9.80538
179 2 28.8 16 0 -9.82463
180 1 30.4 17.6 1.6 -11.6823
181 1 32 16 0 -11.672
182 2 33.6 17.6 1.6 -9.60532
183 1 35.2 16 0 -11.6955
184 2 36.8 17.6 1.6 -9.6892
185 2 38.4 16 0 -9.75709
186 2 40 17.6 1.6 -9.71787
187 2 41.6 16 0 -9.67815
188 1 43.2 17.6 1.6 -11.6717
189 1 44.8 16 0 -11.5363
190 2 46.4 17.6 1.6 -9.78685
191 1 48 16 0 -11.6552
192 2 49.6 17.6 1.6 -9.71585
193 1 0 19.2 0 -11.4814
194 1 1.6 20.8 1.6 -11.5161
195 2 3.2 19.2 0 -9.68446
196 3 4.8 20.8 1.6 -11.1073
197 3 6.4 19.2 0 -11.3532
198 1 8 20.8 1.6 -11.6983
199 2 9.6 19.2 0 -9.88027
200 2 11.2 20.8 1.6 -9.78437
201 1 12.8 19.2 0 -11.7159
202 2 14.4 20.8 1.6 -9.55129
203 2 16 19.2 0 -9.78961
204 3 17.6 20.8 1.6 -11.2115
205 3 19.2 19.2 0 -11.2473
206 2 20.8 20.8 1.6 -9.81765
207 2 22.4 19.2 0 -9.72915
208 1 24 20.8 1.6 -11.8027
209 3 25.6 19.2 0 -11.1898
210 1 27.2 20.8 1.6 -11.7871
211 1 28.8 19.2 0 -11.6731
212 3 30.4 20.8 1.6 -11.1293
213 1 32 19.2 0 -11.637
214 2 33.6 20.8 1.6 -9.75862
215 1 35.2 19.2 0 -11.6683
216 2 36.8 20.8 1.6 -9.72573
217 2 38.4 19.2 0 -9.79111
218 1 40 20.8 1.6 -11.606
219 2 41.6 19.2 0 -9.69967
220 1 43.2 20.8 1.6 -11.5879
221 2 44.8 19.2 0 -9.75942
222 1 46.4 20.8 1.6 -11.7761
223 2 48 19.2 0 -9.58649
224 1 49.6 20.8 1.6 -11.6297
225 2 0 22.4 0 -9.77456
226 3 1.6 24 1.6 -11.1572
227 1 3.2 22.4 0 -11.6472
228 2 4.8 24 1.6 -9.60149
229 1 6.4 22.4 0 -11.7106
230 2 8 24 1.6 -9.79993
231 3 9.6 22.4 0 -11.2727
232 2 11.2 24 1.6 -9.72742
233 1 12.8 22.4 0 -11.6213
234 1 14.4 24 1.6 -11.5046
235 1 16 22.4 0 -11.6221
236 2 17.6 24 1.6 -9.80205
237 3 19.2 22.4 0 -11.2753
238 1 20.8 24 1.6 -11.6543
239 2 22.4 22.4 0 -9.70779
240 2 24 24 1.6 -9.72112
241 3 25.6 22.4 0 -11.3097
242 1 27.2 24 1.6 -11.7397
243 3 28.8 22.4 0 -11.2367
244 2 30.4 24 1.6 -9.84243
245 1 32 22.4 0 -11.7088
246 3 33.6 24 1.6 -11.1947
247 1 35.2 22.4 0 -11.6853
248 2 36.8 24 1.6 -9.75902
249 3 38.4 22.4 0 -11.249
250 2 40 24 1.6 -9.79851
251 3 41.6 22.4 0 -11.1544
252 2 43.2 24 1.6 -9.85192
253 3 44.8 22.4 0 -11.2589
254 3 46.4 24 1.6 -11.2693
255 2 48 22.4 0 -9.77788
256 2 49.6 24 1.6 -9.86059
257 3 0 25.6 0 -11.3143
259 1 3.2 25.6 0 -11.4668
261 1 6.4 25.6 0 -11.5791
263 1 9.6 25.6 0 -11.7699
265 1 12.8 25.6 0 -11.661
267 2 16 25.6 0 -9.7518
269 2 19.2 25.6 0 -9.86614
271 2 22.4 25.6 0 -9.77124
273 2 25.6 25.6 0 -9.84877
275 1 28.8 25.6 0 -11.6871
277 1 32 25.6 0 -11.798
279 2 35.2 25.6 0 -9.70681
281 2 38.4 25.6 0 -9.69336
283 2 41.6 25.6 0 -9.81297
285 2 44.8 25.6 0 -9.81629
287 2 48 25.6 0 -9.87398
258 1 1.6 27.2 1.6 -11.6512
289 3 0 28.8 0 -11.2583
260 1 4.8 27.2 1.6 -11.5641
291 3 3.2 28.8 0 -11.0293
262 2 8 27.2 1.6 -9.76004
293 2 6.4 28.8 0 -9.56951
264 2 11.2 27.2 1.6 -9.69191
295 1 9.6 28.8 0 -11.5838
266 3 14.4 27.2 1.6 -11.1539
297 1 12.8 28.8 0 -11.7166
268 2 17.6 27.2 1.6 -9.82763
299 1 16 28.8 0 -11.6202
270 3 20.8 27.2 1.6 -11.1827
301 2 19.2 28.8 0 -9.67088
272 3 24 27.2 1.6 -11.3248
303 1 22.4 28.8 0 -11.7112
305 3 25.6 28.8 0 -11.2335
274 1 27.2 27.2 1.6 -11.5778
307 1 28.8 28.8 0 -11.7217
276 3 30.4 27.2 1.6 -11.1489
309 1 32 28.8 0 -11.7834
278 3 33.6 27.2 1.6 -11.2412
311 1 35.2 28.8 0 -11.6821
280 1 36.8 27.2 1.6 -11.6101
313 1 38.4 28.8 0 -11.5308
282 2 40 27.2 1.6 -9.74736
315 2 41.6 28.8 0 -9.59646
284 2 43.2 27.2 1.6 -9.72325
317 3 44.8 28.8 0 -11.2553
286 1 46.4 27.2 1.6 -11.7578
319 3 48 28.8 0 -11.3682
288 1 49.6 27.2 1.6 -11.8183
290 1 1.6 30.4 1.6 -11.6717
321 1 0 32 0 -11.7191
292 1 4.8 30.4 1.6 -11.6154
323 2 3.2 32 0 -9.75658
294 1 8 30.4 1.6 -11.5307
325 1 6.4 32 0 -11.4672
296 3 11.2 30.4 1.6 -11.1648
327 2 9.6 32 0 -9.64425
298 3 14.4 30.4 1.6 -11.3105
329 3 12.8 32 0 -11.299
300 1 17.6 30.4 1.6 -11.4912
331 2 16 32 0 -9.71987
302 2 20.8 30.4 1.6 -9.75941
333 2 19.2 32 0 -9.74425
304 3 24 30.4 1.6 -11.1869
335 1 22.4 32 0 -11.7475
337 2 25.6 32 0 -9.8421
306 2 27.2 30.4 1.6 -9.85301
339 1 28.8 32 0 -11.7646
308 2 30.4 30.4 1.6 -9.86975
341 2 32 32 0 -9.79058
310 2 33.6 30.4 1.6 -9.84009
343 2 35.2 32 0 -9.67853
312 3 36.8 30.4 1.6 -11.2248
345 1 38.4 32 0 -11.536
314 2 40 30.4 1.6 -9.70365
347 1 41.6 32 0 -11.535
316 1 43.2 30.4 1.6 -11.5773
349 1 44.8 32 0 -11.6794
318 2 46.4 30.4 1.6 -9.88295
351 1 48 32 0 -11.8023
320 2 49.6 30.4 1.6 -9.77181
322 2 1.6 33.6 1.6 -9.8116
353 1 0 35.2 0 -11.7993
324 1 4.8 33.6 1.6 -11.7136
355 3 3.2 35.2 0 -11.3467
326 1 8 33.6 1.6 -11.6722
357 2 6.4 35.2 0 -9.7945
328 1 11.2 33.6 1.6 -11.7897
359 2 9.6 35.2 0 -9.79306
330 3 14.4 33.6 1.6 -11.1102
361 2 12.8 35.2 0 -9.70301
332 2 17.6 33.6 1.6 -9.7041
363 1 16 35.2 0 -11.4936
334 3 20.8 33.6 1.6 -11.2397
365 1 19.2 35.2 0 -11.6828
336 3 24 33.6 1.6 -11.2366
367 1 22.4 35.2 0 -11.8672
369 1 25.6 35.2 0 -11.8421
338 2 27.2 33.6 1.6 -9.76033
371 1 28.8 35.2 0 -11.6876
340 2 30.4 33.6 1.6 -9.70132
373 1 32 35.2 0 -11.6729
342 1 33.6 33.6 1.6 -11.6633
375 2 35.2 35.2 0 -9.81402
344 1 36.8 33.6 1.6 -11.6982
377 3 38.4 35.2 0 -11.0888
346 2 40 33.6 1.6 -9.74613
379 2 41.6 35.2 0 -9.83604
348 2 43.2 33.6 1.6 -9.74091
381 1 44.8 35.2 0 -11.8124
350 3 46.4 33.6 1.6 -11.1634
383 1 48 35.2 0 -11.7504
352 3 49.6 33.6 1.6 -11.0826
354 2 1.6 36.8 1.6 -9.75879
385 1 0 38.4 0 -11.6871
356 1 4.8 36.8 1.6 -11.76
387 2 3.2 38.4 0 -9.8528
358 2 8 36.8 1.6 -9.77062
389 2 6.4 38.4 0 -9.82834
360 2 11.2 36.8 1.6 -9.79031
391 2 9.6 38.4 0 -9.75435
362 1 14.4 36.8 1.6 -11.6558
393 2 12.8 38.4 0 -9.74662
364 3 17.6 36.8 1.6 -11.165
395 2 16 38.4 0 -9.6622
366 3 20.8 36.8 1.6 -11.3003
397 3 19.2 38.4 0 -11.2709
368 3 24 36.8 1.6 -11.2435
399 1 22.4 38.4 0 -11.7376
401 1 25.6 38.4 0 -11.8117
370 3 27.2 36.8 1.6 -11.1235
403 1 28.8 38.4 0 -11.7841
372 2 30.4 36.8 1.6 -9.80667
405 1 32 38.4 0 -11.8131
374 3 33.6 36.8 1.6 -11.3713
407 1 35.2 38.4 0 -11.8094
376 3 36.8 36.8 1.6 -11.3357
409 1 38.4 38.4 0 -11.589
378 2 40 36.8 1.6 -9.8525
411 2 41.6 38.4 0 -9.74924
380 3 43.2 36.8 1.6 -11.3418
413 1 44.8 38.4 0 -11.8285
382 2 46.4 36.8 1.6 -9.75764
415 1 48 38.4 0 -11.757
384 2 49.6 36.8 1.6 -9.70866
386 1 1.6 40 1.6 -11.6933
417 1 0 41.6 0 -11.6797
388 1 4.8 40 1.6 -11.7559
419 3 3.2 41.6 0 -11.2966
390 2 8 40 1.6 -9.83885
421 2 6.4 41.6 0 -9.84065
392 2 11.2 40 1.6 -9.87202
423 2 9.6 41.6 0 -9.81914
394 1 14.4 40 1.6 -11.7206
425 3 12.8 41.6 0 -11.2668
396 1 17.6 40 1.6 -11.6257
427 3 16 41.6 0 -11.2308
398 1 20.8 40 1.6 -11.5112
429 2 19.2 41.6 0 -9.83369
400 3 24 40 1.6 -11.1109
431 1 22.4 41.6 0 -11.6608
433 1 25.6 41.6 0 -11.689
402 3 27.2 40 1.6 -11.2034
435 1 28.8 41.6 0 -11.6897
404 3 30.4 40 1.6 -11.2549
437 1 32 41.6 0 -11.7388
406 3 33.6 40 1.6 -11.3008
439 1 35.2 41.6 0 -11.603
408 2 36.8 40 1.6 -9.78098
441 2 38.4 41.6 0 -9.61554
410 1 40 40 1.6 -11.6725
443 2 41.6 41.6 0 -9.83351
412 2 43.2 40 1.6 -9.88254
445 1 44.8 41.6 0 -11.7211
414 2 46.4 40 1.6 -9.72425
447 1 48 41.6 0 -11.6324
416 3 49.6 40 1.6 -11.1597
418 1 1.6 43.2 1.6 -11.6067
449 2 0 44.8 0 -9.62009
420 2 4.8 43.2 1.6 -9.79592
451 2 3.2 44.8 0 -9.7806
422 2 8 43.2 1.6 -9.84013
453 1 6.4 44.8 0 -11.6493
424 2 11.2 43.2 1.6 -9.85178
455 1 9.6 44.8 0 -11.6252
426 1 14.4 43.2 1.6 -11.7196
457 3 12.8 44.8 0 -11.2252
428 1 17.6 43.2 1.6 -11.6232
459 3 16 44.8 0 -11.082
430 3 20.8 43.2 1.6 -11.0724
461 2 19.2 44.8 0 -9.81992
432 2 24 43.2 1.6 -9.62749
463 1 22.4 44.8 0 -11.6034
465 1 25.6 44.8 0 -11.5376
434 1 27.2 43.2 1.6 -11.4899
467 2 28.8 44.8 0 -9.76103
436 2 30.4 43.2 1.6 -9.80272
469 1 32 44.8 0 -11.7356
438 1 33.6 43.2 1.6 -11.6353
471 1 35.2 44.8 0 -11.6364
440 1 36.8 43.2 1.6 -11.5698
473 1 38.4 44.8 0 -11.6456
442 1 40 43.2 1.6 -11.6752
475 2 41.6 44.8 0 -9.7643
444 2 43.2 43.2 1.6 -9.75641
477 1 44.8 44.8 0 -11.6633
446 1 46.4 43.2 1.6 -11.5386
479 2 48 44.8 0 -9.73592
448 2 49.6 43.2 1.6 -9.65718
450 1 1.6 46.4 1.6 -11.4982
481 1 0 48 0 -11.4549
452 2 4.8 46.4 1.6 -9.77047
483 2 3.2 48 0 -9.65764
454 2 8 46.4 1.6 -9.73886
485 2 6.4 48 0 -9.66296
456 3 11.2 46.4 1.6 -11.0925
487 1 9.6 48 0 -11.5417
458 1 14.4 46.4 1.6 -11.6775
489 1 12.8 48 0 -11.5569
460 1 17.6 46.4 1.6 -11.5448
491 3 16 48 0 -11.1787
462 2 20.8 46.4 1.6 -9.64672
493 2 19.2 48 0 -9.74043
464 1 24 46.4 1.6 -11.6225
495 2 22.4 48 0 -9.81946
497 2 25.6 48 0 -9.7271
466 2 27.2 46.4 1.6 -9.74266
499 2 28.8 48 0 -9.78958
468 3 30.4 46.4 1.6 -11.3835
501 1 32 48 0 -11.728
470 2 33.6 46.4 1.6 -9.83466
503 2 35.2 48 0 -9.77274
472 2 36.8 46.4 1.6 -9.82159
505 2 38.4 48 0 -9.72087
474 2 40 46.4 1.6 -9.76898
507 1 41.6 48 0 -11.6486
476 2 43.2 46.4 1.6 -9.80124
509 3 44.8 48 0 -11.1268
478 2 46.4 46.4 1.6 -9.75741
511 2 48 48 0 -9.83871
480 2 49.6 46.4 1.6 -9.75666
482 1 1.6 49.6 1.6 -11.6712
484 2 4.8 49.6 1.6 -9.83929
486 2 8 49.6 1.6 -9.64676
488 1 11.2 49.6 1.6 -11.5909
490 1 14.4 49.6 1.6 -11.6739
492 2 17.6 49.6 1.6 -9.81351
494 2 20.8 49.6 1.6 -9.75708
496 3 24 49.6 1.6 -11.2948
498 1 27.2 49.6 1.6 -11.6714
500 3 30.4 49.6 1.6 -11.3017
502 1 33.6 49.6 1.6 -11.6383
504 1 36.8 49.6 1.6 -11.6917
506 2 40 49.6 1.6 -9.59125
508 2 43.2 49.6 1.6 -9.59523
510 1 46.4 49.6 1.6 -11.6091
512 2 49.6 49.6 1.6 -9.80141
513 2 0 0 3.2 -9.87631
514 2 1.6 1.6 4.8 -9.7571
515 2 3.2 0 3.2 -9.79431
516 3 4.8 1.6 4.8 -11.2842
517 1 6.4 0 3.2 -11.6743
518 2 8 1.6 4.8 -9.72479
519 2 9.6 0 3.2 -9.6853
520 1 11.2 1.6 4.8 -11.7627
521 2 12.8 0 3.2 -9.65701
522 1 14.4 1.6 4.8 -11.6163
523 2 16 0 3.2 -9.69138
524 1 17.6 1.6 4.8 -11.5509
525 1 19.2 0 3.2 -11.6274
526 2 20.8 1.6 4.8 -9.76481
527 1 22.4 0 3.2 -11.756
528 2 24 1.6 4.8 -9.8303
529 2 25.6 0 3.2 -9.78523
530 1 27.2 1.6 4.8 -11.742
531 3 28.8 0 3.2 -11.3033
532 1 30.4 1.6 4.8 -11.7994
533 2 32 0 3.2 -9.7942
534 1 33.6 1.6 4.8 -11.5846
535 2 35.2 0 3.2 -9.71881
536 1 36.8 1.6 4.8 -11.6882
537 3 38.4 0 3.2 -11.1
538 1 40 1.6 4.8 -11.6475
539 1 41.6 0 3.2 -11.5093
540 1 43.2 1.6 4.8 -11.6814
541 1 44.8 0 3.2 -11.4537
542 2 46.4 1.6 4.8 -9.64423
543 1 48 0 3.2 -11.5626
544 1 49.6 1.6 4.8 -11.681
545 2 0 3.2 3.2 -9.74432
546 1 1.6 4.8 4.8 -11.671
547 1 3.2 3.2 3.2 -11.731
548 1 4.8 4.8 4.8 -11.7703
549 2 6.4 3.2 3.2 -9.81938
550 1 8 4.8 4.8 -11.7076
551 3 9.6 3.2 3.2 -11.1172
552 1 11.2 4.8 4.8 -11.7007
553 2 12.8 3.2 3.2 -9.77651
554 2 14.4 4.8 4.8 -9.81317
555 2 16 3.2 3.2 -9.70356
556 1 17.6 4.8 4.8 -11.5392
557 1 19.2 3.2 3.2 -11.5786
558 1 20.8 4.8 4.8 -11.6961
559 3 22.4 3.2 3.2 -11.2768
560 1 24 4.8 4.8 -11.6321
561 2 25.6 3.2 3.2 -9.85539
562 1 27.2 4.8 4.8 -11.5275
563 3 28.8 3.2 3.2 -11.1887
564 1 30.4 4.8 4.8 -11.5951
565 2 32 3.2 3.2 -9.72369
566 1 33.6 4.8 4.8 -11.6874
567 3 35.2 3.2 3.2 -11.1368
568 3 36.8 4.8 4.8 -11.2231
569 3 38.4 3.2 3.2 -11.2609
570 1 40 4.8 4.8 -11.6901
571 3 41.6 3.2 3.2 -11.1165
572 1 43.2 4.8 4.8 -11.7791
573 2 44.8 3.2 3.2 -9.7329
574 1 46.4 4.8 4.8 -11.8173
575 2 48 3.2 3.2 -9.8198
576 1 49.6 4.8 4.8 -11.7211
577 1 0 6.4 3.2 -11.7208
578 1 1.6 8 4.8 -11.6499
579 3 3.2 6.4 3.2 -11.1605
580 2 4.8 8 4.8 -9.76304
581 3 6.4 6.4 3.2 -11.2489
582 1 8 8 4.8 -11.5509
583 2 9.6 6.4 3.2 -9.72239
584 2 11.2 8 4.8 -9.68294
585 3 12.8 6.4 3.2 -11.361
586 3 14.4 8 4.8 -11.2533
587 1 16 6.4 3.2 -11.7457
588 3 17.6 8 4.8 -11.1018
589 2 19.2 6.4 3.2 -9.75362
590 1 20.8 8 4.8 -11.7442
591 3 22.4 6.4 3.2 -11.1876
592 1 24 8 4.8 -11.6848
593 1 25.6 6.4 3.2 -11.5539
594 2 27.2 8 4.8 -9.60447
595 1 28.8 6.4 3.2 -11.6304
596 2 30.4 8 4.8 -9.76694
597 2 32 6.4 3.2 -9.64281
598 1 33.6 8 4.8 -11.5898
599 2 35.2 6.4 3.2 -9.72701
600 2 36.8 8 4.8 -9.85388
601 2 38.4 6.4 3.2 -9.80869
602 1 40 8 4.8 -11.716
603 3 41.6 6.4 3.2 -11.2226
604 1 43.2 8 4.8 -11.8201
605 3 44.8 6.4 3.2 -11.3367
606 1 46.4 8 4.8 -11.8242
607 2 48 6.4 3.2 -9.86561
608 2 49.6 8 4.8 -9.77431
609 2 0 9.6 3.2 -9.74221
610 2 1.6 11.2 4.8 -9.70319
611 1 3.2 9.6 3.2 -11.7216
612 2 4.8 11.2 4.8 -9.71938
613 2 6.4 9.6 3.2 -9.69536
614 3 8 11.2 4.8 -11.0256
615 1 9.6 9.6 3.2 -11.6454
616 1 11.2 11.2 4.8 -11.5519
617 2 12.8 9.6 3.2 -9.76214
618 1 14.4 11.2 4.8 -11.595
619 1 16 9.6 3.2 -11.7279
620 2 17.6 11.2 4.8 -9.80084
621 2 19.2 9.6 3.2 -9.83184
622 2 20.8 11.2 4.8 -9.78962
623 3 22.4 9.6 3.2 -11.3575
624 1 24 11.2 4.8 -11.6057
625 2 25.6 9.6 3.2 -9.78904
626 1 27.2 11.2 4.8 -11.5802
627 3 28.8 9.6 3.2 -11.0854
628 1 30.4 11.2 4.8 -11.6655
629 1 32 9.6 3.2 -11.4943
630 1 33.6 11.2 4.8 -11.6872
631 1 35.2 9.6 3.2 -11.6614
632 3 36.8 11.2 4.8 -11.3923
633 3 38.4 9.6 3.2 -11.2962
634 2 40 11.2 4.8 -9.82491
635 3 41.6 9.6 3.2 -11.3906
636 1 43.2 11.2 4.8 -11.7059
637 3 44.8 9.6 3.2 -11.3915
638 2 46.4 11.2 4.8 -9.78286
639 2 48 9.6 3.2 -9.93913
640 1 49.6 11.2 4.8 -11.7042
641 1 0 12.8 3.2 -11.7137
642 3 1.6 14.4 4.8 -11.2107
643 1 3.2 12.8 3.2 -11.6886
644 3 4.8 14.4 4.8 -11.1546
645 1 6.4 12.8 3.2 -11.7841
646 3 8 14.4 4.8 -11.3386
647 2 9.6 12.8 3.2 -9.71448
648 3 11.2 14.4 4.8 -11.3239
649 1 12.8 12.8 3.2 -11.7269
650 3 14.4 14.4 4.8 -11.2513
651 3 16 12.8 3.2 -10.9979
652 2 17.6 14.4 4.8 -9.81855
653 2 19.2 12.8 3.2 -9.83714
654 2 20.8 14.4 4.8 -9.85689
655 1 22.4 12.8 3.2 -11.714
656 2 24 14.4 4.8 -9.63092
657 1 25.6 12.8 3.2 -11.5506
658 1 27.2 14.4 4.8 -11.5623
659 2 28.8 12.8 3.2 -9.6909
660 1 30.4 14.4 4.8 -11.7336
661 3 32 12.8 3.2 -11.2096
662 1 33.6 14.4 4.8 -11.6642
663 3 35.2 12.8 3.2 -11.3307
664 2 36.8 14.4 4.8 -9.7704
665 2 38.4 12.8 3.2 -9.88159
666 2 40 14.4 4.8 -9.8081
667 2 41.6 12.8 3.2 -9.71927
668 1 43.2 14.4 4.8 -11.5498
669 2 44.8 12.8 3.2 -9.70312
670 1 46.4 14.4 4.8 -11.5451
671 2 48 12.8 3.2 -9.75884
672 1 49.6 14.4 4.8 -11.576
673 2 0 16 3.2 -9.76981
674 1 1.6 17.6 4.8 -11.5892
675 1 3.2 16 3.2 -11.4742
676 1 4.8 17.6 4.8 -11.5164
677 1 6.4 16 3.2 -11.6285
678 2 8 17.6 4.8 -9.78522
679 1 9.6 16 3.2 -11.8385
680 3 11.2 17.6 4.8 -11.3168
681 1 12.8 16 3.2 -11.8543
682 2 14.4 17.6 4.8 -9.75129
683 1 16 16 3.2 -11.6282
684 1 17.6 17.6 4.8 -11.5997
685 3 19.2 16 3.2 -11.1789
686 1 20.8 17.6 4.8 -11.7839
687 2 22.4 16 3.2 -9.81867
688 1 24 17.6 4.8 -11.7693
689 2 25.6 16 3.2 -9.8568
690 1 27.2 17.6 4.8 -11.6959
691 3 28.8 16 3.2 -11.1781
692 2 30.4 17.6 4.8 -9.79061
693 2 32 16 3.2 -9.77453
694 1 33.6 17.6 4.8 -11.566
695 1 35.2 16 3.2 -11.5366
696 1 36.8 17.6 4.8 -11.3582
697 2 38.4 16 3.2 -9.78426
698 2 40 17.6 4.8 -9.82457
699 3 41.6 16 3.2 -11.2532
700 2 43.2 17.6 4.8 -9.85936
701 3 44.8 16 3.2 -11.102
702 2 46.4 17.6 4.8 -9.81101
703 2 48 16 3.2 -9.76379
704 1 49.6 17.6 4.8 -11.7559
705 2 0 19.2 3.2 -9.54983
706 1 1.6 20.8 4.8 -11.6412
707 1 3.2 19.2 3.2 -11.3747
708 3 4.8 20.8 4.8 -11.2164
709 1 6.4 19.2 3.2 -11.5824
710 1 8 20.8 4.8 -11.5428
711 2 9.6 19.2 3.2 -9.72548
712 2 11.2 20.8 4.8 -9.79511
713 1 12.8 19.2 3.2 -11.7523
714 2 14.4 20.8 4.8 -9.74569
715 1 16 19.2 3.2 -11.6056
716 1 17.6 20.8 4.8 -11.6142
717 3 19.2 19.2 3.2 -11.3206
718 2 20.8 20.8 4.8 -9.79319
719 3 22.4 19.2 3.2 -11.2536
720 2 24 20.8 4.8 -9.82899
721 2 25.6 19.2 3.2 -9.87106
722 1 27.2 20.8 4.8 -11.6733
723 3 28.8 19.2 3.2 -11.232
724 1 30.4 20.8 4.8 -11.8084
725 2 32 19.2 3.2 -9.79379
726 2 33.6 20.8 4.8 -9.74066
727 1 35.2 19.2 3.2 -11.5012
728 1 36.8 20.8 4.8 -11.4255
729 1 38.4 19.2 3.2 -11.4996
730 2 40 20.8 4.8 -9.54763
731 1 41.6 19.2 3.2 -11.5694
732 2 43.2 20.8 4.8 -9.77679
733 2 44.8 19.2 3.2 -9.80452
734 2 46.4 20.8 4.8 -9.79293
735 3 48 19.2 3.2 -11.313
736 1 49.6 20.8 4.8 -11.7185
737 2 0 22.4 3.2 -9.71848
738 2 1.6 24 4.8 -9.75316
739 1 3.2 22.4 3.2 -11.6193
740 1 4.8 24 4.8 -11.7271
741 2 6.4 22.4 3.2 -9.66602
742 1 8 24 4.8 -11.6098
743 1 9.6 22.4 3.2 -11.6032
744 3 11.2 24 4.8 -11.2539
745 1 12.8 22.4 3.2 -11.623
746 3 14.4 24 4.8 -11.1047
747 1 16 22.4 3.2 -11.5318
748 1 17.6 24 4.8 -11.5919
749 2 19.2 22.4 3.2 -9.77904
750 1 20.8 24 4.8 -11.5109
751 1 22.4 22.4 3.2 -11.6188
752 2 24 24 4.8 -9.7373
753 3 25.6 22.4 3.2 -11.1064
754 2 27.2 24 4.8 -9.71136
755 2 28.8 22.4 3.2 -9.89586
756 2 30.4 24 4.8 -9.81921
757 1 32 22.4 3.2 -11.7673
758 2 33.6 24 4.8 -9.84156
759 2 35.2 22.4 3.2 -9.71945
760 1 36.8 24 4.8 -11.6159
761 2 38.4 22.4 3.2 -9.67009
762 2 40 24 4.8 -9.67403
763 1 41.6 22.4 3.2 -11.6293
764 3 43.2 24 4.8 -11.1205
765 2 44.8 22.4 3.2 -9.82086
766 2 46.4 24 4.8 -9.80981
767 2 48 22.4 3.2 -9.86086
768 1 49.6 24 4.8 -11.6782
769 2 0 25.6 3.2 -9.86967
771 1 3.2 25.6 3.2 -11.6
773 3 6.4 25.6 3.2 -11.1972
775 2 9.6 25.6 3.2 -9.79834
777 1 12.8 25.6 3.2 -11.7205
779 2 16 25.6 3.2 -9.77701
781 2 19.2 25.6 3.2 -9.79659
783 1 22.4 25.6 3.2 -11.6159
785 1 25.6 25.6 3.2 -11.6212
787 3 28.8 25.6 3.2 -11.1866
789 1 32 25.6 3.2 -11.7711
791 1 35.2 25.6 3.2 -11.7277
793 1 38.4 25.6 3.2 -11.6757
795 1 41.6 25.6 3.2 -11.662
797 1 44.8 25.6 3.2 -11.7442
799 2 48 25.6 3.2 -9.79013
770 2 1.6 27.2 4.8 -9.8049
801 2 0 28.8 3.2 -9.79001
772 2 4.8 27.2 4.8 -9.78399
803 2 3.2 28.8 3.2 -9.69892
774 2 8 27.2 4.8 -9.78672
805 2 6.4 28.8 3.2 -9.7835
776 2 11.2 27.2 4.8 -9.80662
807 1 9.6 28.8 3.2 -11.638
778 3 14.4 27.2 4.8 -11.2731
809 1 12.8 28.8 3.2 -11.804
780 3 17.6 27.2 4.8 -11.1863
811 1 16 28.8 3.2 -11.6988
782 2 20.8 27.2 4.8 -9.69511
813 1 19.2 28.8 3.2 -11.6857
784 3 24 27.2 4.8 -10.9977
815 1 22.4 28.8 3.2 -11.7566
817 1 25.6 28.8 3.2 -11.6409
786 1 27.2 27.2 4.8 -11.5387
819 2 28.8 28.8 3.2 -9.75338
788 2 30.4 27.2 4.8 -9.83542
821 1 32 28.8 3.2 -11.7357
790 3 33.6 27.2 4.8 -11.1924
823 2 35.2 28.8 3.2 -9.81286
792 3 36.8 27.2 4.8 -11.2434
825 3 38.4 28.8 3.2 -11.1721
794 2 40 27.2 4.8 -9.77218
827 1 41.6 28.8 3.2 -11.619
796 2 43.2 27.2 4.8 -9.7821
829 2 44.8 28.8 3.2 -9.83954
798 2 46.4 27.2 4.8 -9.81613
831 2 48 28.8 3.2 -9.91938
800 2 49.6 27.2 4.8 -9.81662
802 1 1.6 30.4 4.8 -11.6397
833 1 0 32 3.2 -11.5501
804 1 4.8 30.4 4.8 -11.7993
835 3 3.2 32 3.2 -11.0781
806 1 8 30.4 4.8 -11.6598
837 3 6.4 32 3.2 -10.993
808 3 11.2 30.4 4.8 -11.2493
839 2 9.6 32 3.2 -9.75736
810 3 14.4 30.4 4.8 -11.2978
841 2 12.8 32 3.2 -9.87106
812 2 17.6 30.4 4.8 -9.69131
843 1 16 32 3.2 -11.6858
814 3 20.8 30.4 4.8 -11.1551
845 1 19.2 32 3.2 -11.685
816 2 24 30.4 4.8 -9.80644
847 1 22.4 32 3.2 -11.7849
849 1 25.6 32 3.2 -11.7648
818 2 27.2 30.4 4.8 -9.7988
851 2 28.8 32 3.2 -9.82306
820 2 30.4 30.4 4.8 -9.80282
853 2 32 32 3.2 -9.75779
822 1 33.6 30.4 4.8 -11.6454
855 2 35.2 32 3.2 -9.83279
824 2 36.8 30.4 4.8 -9.81634
857 2 38.4 32 3.2 -9.85657
826 1 40 30.4 4.8 -11.6757
859 2 41.6 32 3.2 -9.67119
828 1 43.2 30.4 4.8 -11.6659
861 2 44.8 32 3.2 -9.74551
830 3 46.4 30.4 4.8 -11.3559
863 1 48 32 3.2 -11.716
832 2 49.6 30.4 4.8 -9.78172
834 1 1.6 33.6 4.8 -11.6852
865 2 0 35.2 3.2 -9.66353
836 1 4.8 33.6 4.8 -11.7848
867 3 3.2 35.2 3.2 -11.263
838 1 8 33.6 4.8 -11.7266
869 2 6.4 35.2 3.2 -9.7214
840 1 11.2 33.6 4.8 -11.7153
871 3 9.6 35.2 3.2 -11.0684
842 1 14.4 33.6 4.8 -11.7058
873 2 12.8 35.2 3.2 -9.76488
844 3 17.6 33.6 4.8 -11.1876
875 1 16 35.2 3.2 -11.6639
846 3 20.8 33.6 4.8 -11.2761
877 1 19.2 35.2 3.2 -11.8367
848 2 24 33.6 4.8 -9.72815
879 1 22.4 35.2 3.2 -11.8117
881 1 25.6 35.2 3.2 -11.7209
850 2 27.2 33.6 4.8 -9.72203
883 1 28.8 35.2 3.2 -11.6892
852 1 30.4 33.6 4.8 -11.7096
885 2 32 35.2 3.2 -9.77408
854 1 33.6 33.6 4.8 -11.6652
887 2 35.2 35.2 3.2 -9.84353
856 2 36.8 33.6 4.8 -9.80696
889 1 38.4 35.2 3.2 -11.7255
858 2 40 33.6 4.8 -9.80242
891 1 41.6 35.2 3.2 -11.7216
860 1 43.2 33.6 4.8 -11.7074
893 1 44.8 35.2 3.2 -11.6804
862 2 46.4 33.6 4.8 -9.79857
895 1 48 35.2 3.2 -11.6102
864 1 49.6 33.6 4.8 -11.6106
866 1 1.6 36.8 4.8 -11.7577
897 1 0 38.4 3.2 -11.661
868 1 4.8 36.8 4.8 -11.7184
899 2 3.2 38.4 3.2 -9.73727
870 1 8 36.8 4.8 -11.6874
901 2 6.4 38.4 3.2 -9.75944
872 1 11.2 36.8 4.8 -11.7202
903 1 9.6 38.4 3.2 -11.7479
874 1 14.4 36.8 4.8 -11.6037
905 3 12.8 38.4 3.2 -11.099
876 3 17.6 36.8 4.8 -11.2877
907 2 16 38.4 3.2 -9.72775
878 3 20.8 36.8 4.8 -11.1625
909 2 19.2 38.4 3.2 -9.6715
880 3 24 36.8 4.8 -11.1969
911 1 22.4 38.4 3.2 -11.711
913 1 25.6 38.4 3.2 -11.8377
882 2 27.2 36.8 4.8 -9.72208
915 1 28.8 38.4 3.2 -11.7574
884 2 30.4 36.8 4.8 -9.7925
917 2 32 38.4 3.2 -9.89114
886 2 33.6 36.8 4.8 -9.92049
919 2 35.2 38.4 3.2 -9.92923
888 2 36.8 36.8 4.8 -9.85326
921 2 38.4 38.4 3.2 -9.8333
890 2 40 36.8 4.8 -9.82055
923 2 41.6 38.4 3.2 -9.87849
892 2 43.2 36.8 4.8 -9.81264
925 3 44.8 38.4 3.2 -11.2699
894 1 46.4 36.8 4.8 -11.6942
927 2 48 38.4 3.2 -9.69329
896 1 49.6 36.8 4.8 -11.6457
898 2 1.6 40 4.8 -9.76511
929 3 0 41.6 3.2 -11.1232
900 1 4.8 40 4.8 -11.7437
931 3 3.2 41.6 3.2 -11.1551
902 3 8 40 4.8 -11.2863
933 2 6.4 41.6 3.2 -9.82936
904 3 11.2 40 4.8 -11.2552
935 1 9.6 41.6 3.2 -11.8184
906 1 14.4 40 4.8 -11.6507
937 2 12.8 41.6 3.2 -9.89705
908 1 17.6 40 4.8 -11.5799
939 2 16 41.6 3.2 -9.63691
910 1 20.8 40 4.8 -11.4993
941 1 19.2 41.6 3.2 -11.5199
912 3 24 40 4.8 -11.2296
943 1 22.4 41.6 3.2 -11.6012
945 2 25.6 41.6 3.2 -9.71382
914 3 27.2 40 4.8 -11.1216
947 1 28.8 41.6 3.2 -11.6285
916 2 30.4 40 4.8 -9.70763
949 3 32 41.6 3.2 -11.3517
918 2 33.6 40 4.8 -9.8732
951 2 35.2 41.6 3.2 -9.84466
920 1 36.8 40 4.8 -11.7612
953 3 38.4 41.6 3.2 -11.1217
922 1 40 40 4.8 -11.7502
955 2 41.6 41.6 3.2 -9.72364
924 1 43.2 40 4.8 -11.7486
957 2 44.8 41.6 3.2 -9.7442
926 1 46.4 40 4.8 -11.6432
959 1 48 41.6 3.2 -11.6146
928 2 49.6 40 4.8 -9.83407
930 1 1.6 43.2 4.8 -11.495
961 1 0 44.8 3.2 -11.3972
932 1 4.8 43.2 4.8 -11.6124
963 1 3.2 44.8 3.2 -11.4665
934 3 8 43.2 4.8 -11.2251
965 2 6.4 44.8 3.2 -9.71071
936 3 11.2 43.2 4.8 -11.3396
967 1 9.6 44.8 3.2 -11.7696
938 2 14.4 43.2 4.8 -9.86141
969 2 12.8 44.8 3.2 -9.84332
940 3 17.6 43.2 4.8 -11.0846
971 1 16 44.8 3.2 -11.5071
942 3 20.8 43.2 4.8 -11.2213
973 1 19.2 44.8 3.2 -11.577
944 2 24 43.2 4.8 -9.75906
975 1 22.4 44.8 3.2 -11.6897
977 2 25.6 44.8 3.2 -9.70482
946 1 27.2 43.2 4.8 -11.4427
979 1 28.8 44.8 3.2 -11.6501
948 2 30.4 43.2 4.8 -9.70909
981 3 32 44.8 3.2 -11.3803
950 3 33.6 43.2 4.8 -11.2819
983 3 35.2 44.8 3.2 -11.2364
952 1 36.8 43.2 4.8 -11.6463
985 2 38.4 44.8 3.2 -9.72916
954 1 40 43.2 4.8 -11.7197
987 2 41.6 44.8 3.2 -9.75797
956 1 43.2 43.2 4.8 -11.6435
989 2 44.8 44.8 3.2 -9.64172
958 2 46.4 43.2 4.8 -9.53448
991 1 48 44.8 3.2 -11.5296
960 2 49.6 43.2 4.8 -9.58918
962 1 1.6 46.4 4.8 -11.4298
993 3 0 48 3.2 -11.0909
964 2 4.8 46.4 4.8 -9.8147
995 2 3.2 48 3.2 -9.75041
966 2 8 46.4 4.8 -9.73938
997 1 6.4 48 3.2 -11.744
968 1 11.2 46.4 4.8 -11.7555
999 2 9.6 48 3.2 -9.73865
970 2 14.4 46.4 4.8 -9.59813
1001 2 12.8 48 3.2 -9.7715
972 1 17.6 46.4 4.8 -11.5041
1003 3 16 48 3.2 -11.0213
974 3 20.8 46.4 4.8 -11.119
1005 1 19.2 48 3.2 -11.5945
976 3 24 46.4 4.8 -11.1502
1007 1 22.4 48 3.2 -11.7179
1009 3 25.6 48 3.2 -11.3205
978 2 27.2 46.4 4.8 -9.80331
1011 2 28.8 48 3.2 -9.89333
980 3 30.4 46.4 4.8 -11.2854
1013 1 32 48 3.2 -11.7155
982 2 33.6 46.4 4.8 -9.83307
1015 3 35.2 48 3.2 -11.2825
984 1 36.8 46.4 4.8 -11.7741
1017 2 38.4 48 3.2 -9.89448
986 1 40 46.4 4.8 -11.6466
1019 1 41.6 48 3.2 -11.6064
988 2 43.2 46.4 4.8 -9.61107
1021 1 44.8 48 3.2 -11.6283
990 1 46.4 46.4 4.8 -11.4399
1023 3 48 48 3.2 -11.1579
992 1 49.6 46.4 4.8 -11.5227
994 1 1.6 49.6 4.8 -11.7274
996 3 4.8 49.6 4.8 -11.2122
998 1 8 49.6 4.8 -11.596
1000 2 11.2 49.6 4.8 -9.71097
1002 1 14.4 49.6 4.8 -11.677
1004 2 17.6 49.6 4.8 -9.58252
1006 2 20.8 49.6 4.8 -9.63705
1008 2 24 49.6 4.8 -9.77145
1010 2 27.2 49.6 4.8 -9.73734
1012 2 30.4 49.6 4.8 -9.84887
1014 1 33.6 49.6 4.8 -11.6633
1016 2 36.8 49.6 4.8 -9.83385
1018 2 40 49.6 4.8 -9.81924
1020 2 43.2 49.6 4.8 -9.69237
1022 2 46.4 49.6 4.8 -9.73971
1024 2 49.6 49.6 4.8 -9.81272
1025 3 0 0 6.4 -11.063
1026 1 1.6 1.6 8 -11.7451
1027 1 3.2 0 6.4 -11.6993
1028 2 4.8 1.6 8 -9.81951
1029 1 6.4 0 6.4 -11.6985
1030 2 8 1.6 8 -9.87947
1031 1 9.6 0 6.4 -11.6941
1032 2 11.2 1.6 8 -9.77893
1033 3 12.8 0 6.4 -11.1754
1034 1 14.4 1.6 8 -11.6442
1035 1 16 0 6.4 -11.4596
1036 1 17.6 1.6 8 -11.6238
1037 3 19.2 0 6.4 -10.9646
1038 2 20.8 1.6 8 -9.79075
1039 1 22.4 0 6.4 -11.6466
1040 3 24 1.6 8 -11.243
1041 1 25.6 0 6.4 -11.6288
1042 2 27.2 1.6 8 -9.79241
1043 2 28.8 0 6.4 -9.75916
1044 2 30.4 1.6 8 -9.87
1045 3 32 0 6.4 -11.1394
1046 1 33.6 1.6 8 -11.6061
1047 2 35.2 0 6.4 -9.74843
1048 2 36.8 1.6 8 -9.62388
1049 2 38.4 0 6.4 -9.81883
1050 1 40 1.6 8 -11.5996
1051 3 41.6 0 6.4 -11.1421
1052 1 43.2 1.6 8 -11.7186
1053 3 44.8 0 6.4 -11.2413
1054 1 46.4 1.6 8 -11.7545
1055 1 48 0 6.4 -11.6378
1056 1 49.6 1.6 8 -11.6574
1057 2 0 3.2 6.4 -9.75046
1058 1 1.6 4.8 8 -11.7517
1059 2 3.2 3.2 6.4 -9.7557
1060 1 4.8 4.8 8 -11.8446
1061 3 6.4 3.2 6.4 -11.3656
1062 2 8 4.8 8 -9.83544
1063 3 9.6 3.2 6.4 -11.2449
1064 2 11.2 4.8 8 -9.78526
1065 3 12.8 3.2 6.4 -11.2502
1066 3 14.4 4.8 8 -11.1733
1067 2 16 3.2 6.4 -9.62853
1068 1 17.6 4.8 8 -11.6188
1069 2 19.2 3.2 6.4 -9.65732
1070 1 20.8 4.8 8 -11.6359
1071 2 22.4 3.2 6.4 -9.85669
1072 2 24 4.8 8 -9.87677
1073 3 25.6 3.2 6.4 -11.2217
1074 2 27.2 4.8 8 -9.78878
1075 2 28.8 3.2 6.4 -9.80586
1076 2 30.4 4.8 8 -9.83974
1077 2 32 3.2 6.4 -9.75176
1078 2 33.6 4.8 8 -9.85256
1079 1 35.2 3.2 6.4 -11.5759
1080 3 36.8 4.8 8 -11.2908
1081 1 38.4 3.2 6.4 -11.6088
1082 2 40 4.8 8 -9.79811
1083 3 41.6 3.2 6.4 -11.166
1084 1 43.2 4.8 8 -11.7293
1085 3 44.8 3.2 6.4 -11.2703
1086 2 46.4 4.8 8 -9.75244
1087 3 48 3.2 6.4 -11.1893
1088 1 49.6 4.8 8 -11.8113
1089 3 0 6.4 6.4 -11.1228
1090 1 1.6 8 8 -11.7072
1091 3 3.2 6.4 6.4 -11.1567
1092 2 4.8 8 8 -9.77968
1093 2 6.4 6.4 6.4 -9.81787
1094 2 8 8 8 -9.69068
1095 1 9.6 6.4 6.4 -11.5733
1096 3 11.2 8 8 -11.1912
1097 1 12.8 6.4 6.4 -11.7329
1098 2 14.4 8 8 -9.78536
1099 1 16 6.4 6.4 -11.6444
1100 1 17.6 8 8 -11.6102
1101 2 19.2 6.4 6.4 -9.56857
1102 1 20.8 8 8 -11.6244
1103 3 22.4 6.4 6.4 -11.1511