ITEM: TIMESTEP
0
ITEM: NUMBER OF ATOMS
8192
ITEM: BOX BOUNDS pp pp pp
0.0000000000000000e+00 5.1200000000000003e+01
0.0000000000000000e+00 5.1200000000000003e+01
0.0000000000000000e+00 5.1200000000000003e+01
ITEM: ATOMS id type x y z c_eng
1 1 0 0 0 -11.402
2 1 1.6 1.6 1.6 -11.3067
3 2 3.2 0 0 -9.59845
4 2 4.8 1.6 1.6 -9.64501
5 1 6.4 0 0 -11.5083
6 3 8 1.6 1.6 -11.087
7 1 9.6 0 0 -11.5012
8 2 11.2 1.6 1.6 -9.47307
9 1 12.8 0 0 -11.2633
10 1 14.4 1.6 1.6 -11.3685
11 1 16 0 0 -11.2251
12 1 17.6 1.6 1.6 -11.4678
13 1 19.2 0 0 -11.2174
14 1 20.8 1.6 1.6 -11.6246
15 2 22.4 0 0 -9.48061
16 1 24 1.6 1.6 -11.6844
17 2 25.6 0 0 -9.55092
18 1 27.2 1.6 1.6 -11.5581
19 3 28.8 0 0 -10.8588
20 1 30.4 1.6 1.6 -11.5037
21 3 32 0 0 -11.0393
22 1 33.6 1.6 1.6 -11.5396
23 1 35.2 0 0 -11.4517
24 1 36.8 1.6 1.6 -11.4225
25 3 38.4 0 0 -10.9943
26 1 40 1.6 1.6 -11.3511
27 2 41.6 0 0 -9.45128
28 2 43.2 1.6 1.6 -9.45216
29 1 44.8 0 0 -11.2805
30 2 46.4 1.6 1.6 -9.32872
31 2 48 0 0 -9.57518
32 1 49.6 1.6 1.6 -11.4076
33 2 0 3.2 0 -9.48368
34 1 1.6 4.8 1.6 -11.4576
35 2 3.2 3.2 0 -9.63521
36 1 4.8 4.8 1.6 -11.3488
37 1 6.4 3.2 0 -11.5894
38 3 8 4.8 1.6 -10.9946
39 1 9.6 3.2 0 -11.6891
40 3 11.2 4.8 1.6 -11.1244
41 1 12.8 3.2 0 -11.5253
42 1 14.4 4.8 1.6 -11.4085
43 2 16 3.2 0 -9.44456
44 1 17.6 4.8 1.6 -11.5801
45 3 19.2 3.2 0 -11.0392
46 1 20.8 4.8 1.6 -11.7181
47 3 22.4 3.2 0 -11.0857
48 1 24 4.8 1.6 -11.6571
49 2 25.6 3.2 0 -9.51463
50 1 27.2 4.8 1.6 -11.5949
51 2 28.8 3.2 0 -9.51524
52 1 30.4 4.8 1.6 -11.627
53 2 32 3.2 0 -9.60645
54 1 33.6 4.8 1.6 -11.4981
55 1 35.2 3.2 0 -11.2761
56 1 36.8 4.8 1.6 -11.1758
57 2 38.4 3.2 0 -9.40525
58 1 40 4.8 1.6 -11.2647
59 1 41.6 3.2 0 -11.2848
60 2 43.2 4.8 1.6 -9.37284
61 1 44.8 3.2 0 -11.3771
62 1 46.4 4.8 1.6 -11.3551
63 2 48 3.2 0 -9.40712
64 1 49.6 4.8 1.6 -11.3606
65 2 0 6.4 0 -9.47385
66 1 1.6 8 1.6 -11.4157
67 3 3.2 6.4 0 -10.9506
68 2 4.8 8 1.6 -9.57146
69 1 6.4 6.4 0 -11.4007
70 2 8 8 1.6 -9.51451
71 1 9.6 6.4 0 -11.6291
72 2 11.2 8 1.6 -9.66931
73 3 12.8 6.4 0 -11.0048
74 1 14.4 8 1.6 -11.4426
75 2 16 6.4 0 -9.55372
76 1 17.6 8 1.6 -11.4493
77 3 19.2 6.4 0 -11.1269
78 1 20.8 8 1.6 -11.5817
79 3 22.4 6.4 0 -10.9965
80 1 24 8 1.6 -11.5897
81 2 25.6 6.4 0 -9.43881
82 1 27.2 8 1.6 -11.5199
83 2 28.8 6.4 0 -9.47701
84 1 30.4 8 1.6 -11.6882
85 2 32 6.4 0 -9.67036
86 2 33.6 8 1.6 -9.61165
87 1 35.2 6.4 0 -11.3805
88 1 36.8 8 1.6 -11.4211
89 2 38.4 6.4 0 -9.48418
90 1 40 8 1.6 -11.3014
91 1 41.6 6.4 0 -11.2595
92 1 43.2 8 1.6 -11.2942
93 2 44.8 6.4 0 -9.42154
94 2 46.4 8 1.6 -9.41206
95 1 48 6.4 0 -11.2625
96 1 49.6 8 1.6 -11.2883
97 1 0 9.6 0 -11.233
98 1 1.6 11.2 1.6 -11.2588
99 2 3.2 9.6 0 -9.45104
100 2 4.8 11.2 1.6 -9.49005
101 1 6.4 9.6 0 -11.3893
102 2 8 11.2 1.6 -9.51476
103 1 9.6 9.6 0 -11.5238
104 3 11.2 11.2 1.6 -10.996
105 1 12.8 9.6 0 -11.6023
106 2 14.4 11.2 1.6 -9.5261
107 2 16 9.6 0 -9.49252
108 1 17.6 11.2 1.6 -11.4336
109 2 19.2 9.6 0 -9.55324
110 1 20.8 11.2 1.6 -11.5839
111 2 22.4 9.6 0 -9.51438
112 1 24 11.2 1.6 -11.5502
113 1 25.6 9.6 0 -11.2919
114 1 27.2 11.2 1.6 -11.3968
115 2 28.8 9.6 0 -9.3972
116 1 30.4 11.2 1.6 -11.2932
117 2 32 9.6 0 -9.59801
118 1 33.6 11.2 1.6 -11.4076
119 1 35.2 9.6 0 -11.4746
120 1 36.8 11.2 1.6 -11.5168
121 3 38.4 9.6 0 -10.9017
122 1 40 11.2 1.6 -11.4666
123 2 41.6 9.6 0 -9.47372
124 1 43.2 11.2 1.6 -11.314
125 2 44.8 9.6 0 -9.57009
126 2 46.4 11.2 1.6 -9.49638
127 1 48 9.6 0 -11.3002
128 2 49.6 11.2 1.6 -9.31024
129 1 0 12.8 0 -11.4385
130 2 1.6 14.4 1.6 -9.553
131 1 3.2 12.8 0 -11.4556
132 2 4.8 14.4 1.6 -9.58388
133 1 6.4 12.8 0 -11.4191
134 2 8 14.4 1.6 -9.43301
135 1 9.6 12.8 0 -11.5242
136 2 11.2 14.4 1.6 -9.54562
137 1 12.8 12.8 0 -11.626
138 2 14.4 14.4 1.6 -9.56223
139 1 16 12.8 0 -11.4768
140 1 17.6 14.4 1.6 -11.5221
141 3 19.2 12.8 0 -10.8852
142 2 20.8 14.4 1.6 -9.66844
143 2 22.4 12.8 0 -9.59577
144 1 24 14.4 1.6 -11.5492
145 2 25.6 12.8 0 -9.36598
146 1 27.2 14.4 1.6 -11.3111
147 1 28.8 12.8 0 -11.1877
148 1 30.4 14.4 1.6 -11.1222
149 1 32 12.8 0 -11.2814
150 1 33.6 14.4 1.6 -11.2791
151 1 35.2 12.8 0 -11.3845
152 2 36.8 14.4 1.6 -9.61004
153 2 38.4 12.8 0 -9.53189
154 1 40 14.4 1.6 -11.3906
155 2 41.6 12.8 0 -9.43431
156 1 43.2 14.4 1.6 -11.3193
157 2 44.8 12.8 0 -9.60466
158 2 46.4 14.4 1.6 -9.56232
159 1 48 12.8 0 -11.5589
160 2 49.6 14.4 1.6 -9.4765
161 1 0 16 0 -11.6174
162 2 1.6 17.6 1.6 -9.62946
163 1 3.2 16 0 -11.6915
164 3 4.8 17.6 1.6 -10.8508
165 1 6.4 16 0 -11.5363
166 1 8 17.6 1.6 -11.2549
167 1 9.6 16 0 -11.4041
168 1 11.2 17.6 1.6 -11.2463
169 1 12.8 16 0 -11.5396
170 2 14.4 17.6 1.6 -9.56747
171 2 16 16 0 -9.41585
172 1 17.6 17.6 1.6 -11.5844
173 2 19.2 16 0 -9.6285
174 1 20.8 17.6 1.6 -11.5212
175 1 22.4 16 0 -11.2325
176 1 24 17.6 1.6 -11.2852
177 1 25.6 16 0 -11.3096
178 2 27.2 17.6 1.6 -9.46026
179 1 28.8 16 0 -11.3803
180 2 30.4 17.6 1.6 -9.55128
181 1 32 16 0 -11.5054
182 3 33.6 17.6 1.6 -10.9499
183 1 35.2 16 0 -11.585
184 3 36.8 17.6 1.6 -11.0437
185 1 38.4 16 0 -11.4947
186 2 40 17.6 1.6 -9.3668
187 1 41.6 16 0 -11.1458
188 2 43.2 17.6 1.6 -9.4086
189 1 44.8 16 0 -11.4957
190 2 46.4 17.6 1.6 -9.63652
191 1 48 16 0 -11.6384
192 1 49.6 17.6 1.6 -11.4782
193 1 0 19.2 0 -11.5656
194 2 1.6 20.8 1.6 -9.56462
195 1 3.2 19.2 0 -11.7242
196 3 4.8 20.8 1.6 -11.1276
197 1 6.4 19.2 0 -11.6469
198 2 8 20.8 1.6 -9.5441
199 1 9.6 19.2 0 -11.3425
200 1 11.2 20.8 1.6 -11.2137
201 1 12.8 19.2 0 -11.2221
202 1 14.4 20.8 1.6 -11.3284
203 1 16 19.2 0 -11.2036
204 1 17.6 20.8 1.6 -11.4655
205 2 19.2 19.2 0 -9.5145
206 1 20.8 20.8 1.6 -11.5355
207 2 22.4 19.2 0 -9.35027
208 1 24 20.8 1.6 -11.2564
209 1 25.6 19.2 0 -11.342
210 2 27.2 20.8 1.6 -9.40613
211 1 28.8 19.2 0 -11.5769
212 2 30.4 20.8 1.6 -9.49572
213 1 32 19.2 0 -11.5616
214 2 33.6 20.8 1.6 -9.52724
215 1 35.2 19.2 0 -11.4947
216 2 36.8 20.8 1.6 -9.46055
217 1 38.4 19.2 0 -11.4325
218 1 40 20.8 1.6 -11.3904
219 1 41.6 19.2 0 -11.2265
220 1 43.2 20.8 1.6 -11.4511
221 1 44.8 19.2 0 -11.4117
222 1 46.4 20.8 1.6 -11.664
223 3 48 19.2 0 -10.9705
224 1 49.6 20.8 1.6 -11.4959
225 1 0 22.4 0 -11.4236
226 3 1.6 24 1.6 -11.0806
227 1 3.2 22.4 0 -11.7205
228 3 4.8 24 1.6 -11.1268
229 1 6.4 22.4 0 -11.7831
230 3 8 24 1.6 -11.2054
231 1 9.6 22.4 0 -11.5971
232 3 11.2 24 1.6 -11.0846
233 1 12.8 22.4 0 -11.415
234 3 14.4 24 1.6 -10.6399
235 1 16 22.4 0 -11.2933
236 1 17.6 24 1.6 -11.4801
237 3 19.2 22.4 0 -11.0854
238 1 20.8 24 1.6 -11.5578
239 3 22.4 22.4 0 -10.9892
240 2 24 24 1.6 -9.46005
241 1 25.6 22.4 0 -11.3272
242 1 27.2 24 1.6 -11.3922
243 2 28.8 22.4 0 -9.56892
244 1 30.4 24 1.6 -11.6203
245 2 32 22.4 0 -9.56836
246 1 33.6 24 1.6 -11.4854
247 1 35.2 22.4 0 -11.4197
248 1 36.8 24 1.6 -11.5702
249 2 38.4 22.4 0 -9.60908
250 1 40 24 1.6 -11.6569
251 2 41.6 22.4 0 -9.39681
252 1 43.2 24 1.6 -11.7223
253 2 44.8 22.4 0 -9.46804
254 1 46.4 24 1.6 -11.7511
255 2 48 22.4 0 -9.55128
256 1 49.6 24 1.6 -11.516
257 1 0 25.6 0 -11.5016
259 1 3.2 25.6 0 -11.6109
261 1 6.4 25.6 0 -11.6753
263 1 9.6 25.6 0 -11.8413
265 1 12.8 25.6 0 -11.6453
267 1 16 25.6 0 -11.3802
269 3 19.2 25.6 0 -10.9502
271 1 22.4 25.6 0 -11.4454
273 1 25.6 25.6 0 -11.3722
275 3 28.8 25.6 0 -10.8984
277 3 32 25.6 0 -11.0857
279 2 35.2 25.6 0 -9.5336
281 2 38.4 25.6 0 -9.70358
283 2 41.6 25.6 0 -9.63442
285 3 44.8 25.6 0 -10.9502
287 2 48 25.6 0 -9.57992
258 3 1.6 27.2 1.6 -10.9497
289 1 0 28.8 0 -11.3844
260 2 4.8 27.2 1.6 -9.4483
291 1 3.2 28.8 0 -11.4024
262 3 8 27.2 1.6 -11.1637
293 1 6.4 28.8 0 -11.4345
264 3 11.2 27.2 1.6 -11.115
295 1 9.6 28.8 0 -11.6366
266 1 14.4 27.2 1.6 -11.3626
297 2 12.8 28.8 0 -9.56476
268 1 17.6 27.2 1.6 -11.4328
299 2 16 28.8 0 -9.41481
270 1 20.8 27.2 1.6 -11.3724
301 2 19.2 28.8 0 -9.52225
272 2 24 27.2 1.6 -9.44981
303 1 22.4 28.8 0 -11.4072
305 1 25.6 28.8 0 -11.5535
274 1 27.2 27.2 1.6 -11.3906
307 2 28.8 28.8 0 -9.604
276 1 30.4 27.2 1.6 -11.6841
309 2 32 28.8 0 -9.43368
278 1 33.6 27.2 1.6 -11.4951
311 1 35.2 28.8 0 -11.3293
280 1 36.8 27.2 1.6 -11.4099
313 1 38.4 28.8 0 -11.4516
282 1 40 27.2 1.6 -11.4616
315 1 41.6 28.8 0 -11.4571
284 1 43.2 27.2 1.6 -11.4423
317 1 44.8 28.8 0 -11.4122
286 1 46.4 27.2 1.6 -11.6034
319 3 48 28.8 0 -10.8565
288 1 49.6 27.2 1.6 -11.5494
290 2 1.6 30.4 1.6 -9.54307
321 1 0 32 0 -11.4078
292 1 4.8 30.4 1.6 -11.385
323 3 3.2 32 0 -10.8881
294 1 8 30.4 1.6 -11.5624
325 3 6.4 32 0 -10.9447
296 1 11.2 30.4 1.6 -11.6182
327 2 9.6 32 0 -9.56938
298 1 14.4 30.4 1.6 -11.5196
329 2 12.8 32 0 -9.47749
300 1 17.6 30.4 1.6 -11.4498
331 2 16 32 0 -9.47772
302 1 20.8 30.4 1.6 -11.2875
333 2 19.2 32 0 -9.35119
304 3 24 30.4 1.6 -11.0003
335 1 22.4 32 0 -11.457
337 1 25.6 32 0 -11.6976
306 2 27.2 30.4 1.6 -9.51787
339 2 28.8 32 0 -9.63326
308 1 30.4 30.4 1.6 -11.4466
341 1 32 32 0 -11.2669
310 1 33.6 30.4 1.6 -11.3309
343 1 35.2 32 0 -11.2484
312 3 36.8 30.4 1.6 -10.9235
345 1 38.4 32 0 -11.3692
314 2 40 30.4 1.6 -9.49818
347 1 41.6 32 0 -11.375
316 2 43.2 30.4 1.6 -9.27151
349 1 44.8 32 0 -11.4765
318 1 46.4 30.4 1.6 -11.3687
351 1 48 32 0 -11.517
320 1 49.6 30.4 1.6 -11.3431
322 3 1.6 33.6 1.6 -11.1192
353 1 0 35.2 0 -11.6022
324 1 4.8 33.6 1.6 -11.472
355 2 3.2 35.2 0 -9.5963
326 1 8 33.6 1.6 -11.386
357 1 6.4 35.2 0 -11.2372
328 1 11.2 33.6 1.6 -11.2959
359 1 9.6 35.2 0 -11.2142
330 1 14.4 33.6 1.6 -11.3392
361 1 12.8 35.2 0 -11.1883
332 1 17.6 33.6 1.6 -11.1684
363 1 16 35.2 0 -11.1126
334 1 20.8 33.6 1.6 -11.1603
365 1 19.2 35.2 0 -11.2477
336 2 24 33.6 1.6 -9.55069
367 1 22.4 35.2 0 -11.4706
369 1 25.6 35.2 0 -11.4344
338 2 27.2 33.6 1.6 -9.59303
371 1 28.8 35.2 0 -11.5087
340 2 30.4 33.6 1.6 -9.39731
373 1 32 35.2 0 -11.5349
342 1 33.6 33.6 1.6 -11.1572
375 1 35.2 35.2 0 -11.3639
344 1 36.8 33.6 1.6 -11.3054
377 1 38.4 35.2 0 -11.382
346 1 40 33.6 1.6 -11.2896
379 2 41.6 35.2 0 -9.41905
348 1 43.2 33.6 1.6 -11.2552
381 3 44.8 35.2 0 -10.9427
350 2 46.4 33.6 1.6 -9.47315
383 2 48 35.2 0 -9.62298
352 3 49.6 33.6 1.6 -11.0799
354 3 1.6 36.8 1.6 -10.9862
385 1 0 38.4 0 -11.2896
356 2 4.8 36.8 1.6 -9.3858
387 1 3.2 38.4 0 -11.3854
358 1 8 36.8 1.6 -11.3211
389 1 6.4 38.4 0 -11.2236
360 1 11.2 36.8 1.6 -11.3212
391 3 9.6 38.4 0 -10.8533
362 2 14.4 36.8 1.6 -9.33126
393 2 12.8 38.4 0 -9.56503
364 1 17.6 36.8 1.6 -11.3456
395 2 16 38.4 0 -9.52668
366 3 20.8 36.8 1.6 -10.9388
397 2 19.2 38.4 0 -9.61975
368 2 24 36.8 1.6 -9.43367
399 1 22.4 38.4 0 -11.5753
401 1 25.6 38.4 0 -11.3433
370 1 27.2 36.8 1.6 -11.2225
403 1 28.8 38.4 0 -11.4618
372 2 30.4 36.8 1.6 -9.54587
405 1 32 38.4 0 -11.7203
374 3 33.6 36.8 1.6 -11.0846
407 1 35.2 38.4 0 -11.7511
376 3 36.8 36.8 1.6 -10.9499
409 1 38.4 38.4 0 -11.6889
378 3 40 36.8 1.6 -10.9999
411 1 41.6 38.4 0 -11.4566
380 1 43.2 36.8 1.6 -11.3459
413 3 44.8 38.4 0 -10.9068
382 1 46.4 36.8 1.6 -11.5217
415 1 48 38.4 0 -11.4513
384 2 49.6 36.8 1.6 -9.59387
386 1 1.6 40 1.6 -11.4708
417 1 0 41.6 0 -11.2879
388 1 4.8 40 1.6 -11.3321
419 3 3.2 41.6 0 -10.8103
390 1 8 40 1.6 -11.4196
421 1 6.4 41.6 0 -11.1144
392 1 11.2 40 1.6 -11.6528
423 2 9.6 41.6 0 -9.46868
394 1 14.4 40 1.6 -11.6213
425 3 12.8 41.6 0 -10.9936
396 1 17.6 40 1.6 -11.4367
427 3 16 41.6 0 -11.0419
398 3 20.8 40 1.6 -11.1099
429 1 19.2 41.6 0 -11.4032
400 1 24 40 1.6 -11.4287
431 2 22.4 41.6 0 -9.73036
433 3 25.6 41.6 0 -10.8548
402 2 27.2 40 1.6 -9.42149
435 1 28.8 41.6 0 -11.4011
404 2 30.4 40 1.6 -9.43868
437 1 32 41.6 0 -11.5242
406 3 33.6 40 1.6 -11.0838
439 1 35.2 41.6 0 -11.6889
408 3 36.8 40 1.6 -11.1268
441 1 38.4 41.6 0 -11.6309
410 2 40 40 1.6 -9.58039
443 1 41.6 41.6 0 -11.2857
412 1 43.2 40 1.6 -11.2789
445 3 44.8 41.6 0 -10.9423
414 2 46.4 40 1.6 -9.56466
447 2 48 41.6 0 -9.52775
416 2 49.6 40 1.6 -9.4215
418 1 1.6 43.2 1.6 -11.4166
449 1 0 44.8 0 -11.2343
420 1 4.8 43.2 1.6 -11.4242
451 2 3.2 44.8 0 -9.48877
422 1 8 43.2 1.6 -11.3242
453 1 6.4 44.8 0 -11.1867
424 1 11.2 43.2 1.6 -11.6159
455 1 9.6 44.8 0 -11.1846
426 1 14.4 43.2 1.6 -11.7183
457 2 12.8 44.8 0 -9.43381
428 1 17.6 43.2 1.6 -11.41
459 2 16 44.8 0 -9.55068
430 2 20.8 43.2 1.6 -9.57472
461 1 19.2 44.8 0 -11.2142
432 1 24 43.2 1.6 -11.6762
463 3 22.4 44.8 0 -11.1225
465 3 25.6 44.8 0 -11.1677
434 1 27.2 43.2 1.6 -11.5385
467 2 28.8 44.8 0 -9.59314
436 1 30.4 43.2 1.6 -11.3977
469 2 32 44.8 0 -9.6462
438 2 33.6 43.2 1.6 -9.66268
471 1 35.2 44.8 0 -11.5468
440 3 36.8 43.2 1.6 -11.0859
473 1 38.4 44.8 0 -11.5542
442 2 40 43.2 1.6 -9.51955
475 1 41.6 44.8 0 -11.4031
444 1 43.2 43.2 1.6 -11.4013
477 2 44.8 44.8 0 -9.60335
446 1 46.4 43.2 1.6 -11.4002
479 2 48 44.8 0 -9.53246
448 1 49.6 43.2 1.6 -11.3983
450 1 1.6 46.4 1.6 -11.3753
481 1 0 48 0 -11.384
452 1 4.8 46.4 1.6 -11.4214
483 2 3.2 48 0 -9.44944
454 2 8 46.4 1.6 -9.37787
485 1 6.4 48 0 -11.3044
456 1 11.2 46.4 1.6 -11.3166
487 1 9.6 48 0 -11.2888
458 1 14.4 46.4 1.6 -11.471
489 1 12.8 48 0 -11.1233
460 1 17.6 46.4 1.6 -11.4677
491 2 16 48 0 -9.43945
462 1 20.8 46.4 1.6 -11.6115
493 2 19.2 48 0 -9.44879
464 1 24 46.4 1.6 -11.7809
495 3 22.4 48 0 -11.1269
497 3 25.6 48 0 -11.0846
466 1 27.2 46.4 1.6 -11.5812
499 2 28.8 48 0 -9.57299
468 1 30.4 46.4 1.6 -11.5049
501 2 32 48 0 -9.62328
470 2 33.6 46.4 1.6 -9.63768
503 1 35.2 48 0 -11.4492
472 3 36.8 46.4 1.6 -11.1236
505 3 38.4 48 0 -11.1463
474 2 40 46.4 1.6 -9.65738
507 2 41.6 48 0 -9.63952
476 2 43.2 46.4 1.6 -9.68819
509 2 44.8 48 0 -9.47926
478 2 46.4 46.4 1.6 -9.61228
511 1 48 48 0 -11.529
480 3 49.6 46.4 1.6 -10.7965
482 1 1.6 49.6 1.6 -11.3355
484 1 4.8 49.6 1.6 -11.4228
486 3 8 49.6 1.6 -10.8545
488 2 11.2 49.6 1.6 -9.35093
490 1 14.4 49.6 1.6 -11.388
492 1 17.6 49.6 1.6 -11.5352
494 1 20.8 49.6 1.6 -11.6217
496 1 24 49.6 1.6 -11.6891
498 1 27.2 49.6 1.6 -11.505
500 1 30.4 49.6 1.6 -11.4902
502 2 33.6 49.6 1.6 -9.6867
504 3 36.8 49.6 1.6 -11.0652
506 1 40 49.6 1.6 -11.4389
508 1 43.2 49.6 1.6 -11.4001
510 1 46.4 49.6 1.6 -11.3513
512 2 49.6 49.6 1.6 -9.45502
513 1 0 0 3.2 -11.2494
514 1 1.6 1.6 4.8 -11.4232
515 2 3.2 0 3.2 -9.49663
516 2 4.8 1.6 4.8 -9.57202
517 1 6.4 0 3.2 -11.5578
518 2 8 1.6 4.8 -9.51412
519 1 9.6 0 3.2 -11.5829
520 1 11.2 1.6 4.8 -11.3502
521 1 12.8 0 3.2 -11.5008
522 3 14.4 1.6 4.8 -10.9515
523 3 16 0 3.2 -10.9773
524 1 17.6 1.6 4.8 -11.4284
525 3 19.2 0 3.2 -10.8588
526 1 20.8 1.6 4.8 -11.3769
527 2 22.4 0 3.2 -9.67221
528 3 24 1.6 4.8 -10.8718
529 2 25.6 0 3.2 -9.52263
530 1 27.2 1.6 4.8 -11.3637
531 1 28.8 0 3.2 -11.2848
532 1 30.4 1.6 4.8 -11.1896
533 1 32 0 3.2 -11.4563
534 1 33.6 1.6 4.8 -11.3816
535 3 35.2 0 3.2 -10.8331
536 1 36.8 1.6 4.8 -11.4586
537 1 38.4 0 3.2 -11.3655
538 2 40 1.6 4.8 -9.49244
539 1 41.6 0 3.2 -11.4121
540 3 43.2 1.6 4.8 -10.9064
541 1 44.8 0 3.2 -11.4291
542 1 46.4 1.6 4.8 -11.2594
543 1 48 0 3.2 -11.44
544 2 49.6 1.6 4.8 -9.36626
545 1 0 3.2 3.2 -11.335
546 2 1.6 4.8 4.8 -9.56675
547 1 3.2 3.2 3.2 -11.3548
548 1 4.8 4.8 4.8 -11.2828
549 1 6.4 3.2 3.2 -11.4998
550 2 8 4.8 4.8 -9.58242
551 1 9.6 3.2 3.2 -11.6478
552 3 11.2 4.8 4.8 -10.9952
553 1 12.8 3.2 3.2 -11.4999
554 3 14.4 4.8 4.8 -11.0894
555 1 16 3.2 3.2 -11.5057
556 3 17.6 4.8 4.8 -10.944
557 2 19.2 3.2 3.2 -9.6077
558 1 20.8 4.8 4.8 -11.4116
559 2 22.4 3.2 3.2 -9.6328
560 1 24 4.8 4.8 -11.4992
561 2 25.6 3.2 3.2 -9.60096
562 1 27.2 4.8 4.8 -11.3706
563 2 28.8 3.2 3.2 -9.39734
564 1 30.4 4.8 4.8 -11.3764
565 2 32 3.2 3.2 -9.43418
566 1 33.6 4.8 4.8 -11.3073
567 2 35.2 3.2 3.2 -9.3513
568 1 36.8 4.8 4.8 -11.2749
569 1 38.4 3.2 3.2 -11.3192
570 3 40 4.8 4.8 -10.7451
571 1 41.6 3.2 3.2 -11.53
572 3 43.2 4.8 4.8 -11.0003
573 1 44.8 3.2 3.2 -11.5141
574 2 46.4 4.8 4.8 -9.55679
575 1 48 3.2 3.2 -11.3825
576 3 49.6 4.8 4.8 -10.9929
577 2 0 6.4 3.2 -9.52272
578 2 1.6 8 4.8 -9.59889
579 1 3.2 6.4 3.2 -11.4536
580 3 4.8 8 4.8 -10.9018
581 1 6.4 6.4 3.2 -11.5079
582 2 8 8 4.8 -9.58284
583 1 9.6 6.4 3.2 -11.6891
584 2 11.2 8 4.8 -9.64636
585 1 12.8 6.4 3.2 -11.6459
586 3 14.4 8 4.8 -10.9499
587 1 16 6.4 3.2 -11.4882
588 2 17.6 8 4.8 -9.56282
589 2 19.2 6.4 3.2 -9.56737
590 1 20.8 8 4.8 -11.2942
591 2 22.4 6.4 3.2 -9.59461
592 2 24 8 4.8 -9.57
593 2 25.6 6.4 3.2 -9.56189
594 1 27.2 8 4.8 -11.3978
595 2 28.8 6.4 3.2 -9.515
596 1 30.4 8 4.8 -11.3272
597 3 32 6.4 3.2 -10.9412
598 1 33.6 8 4.8 -11.3662
599 1 35.2 6.4 3.2 -11.209
600 1 36.8 8 4.8 -11.1678
601 1 38.4 6.4 3.2 -11.1799
602 1 40 8 4.8 -11.3427
603 1 41.6 6.4 3.2 -11.2464
604 1 43.2 8 4.8 -11.3217
605 1 44.8 6.4 3.2 -11.4943
606 2 46.4 8 4.8 -9.4915
607 1 48 6.4 3.2 -11.4385
608 2 49.6 8 4.8 -9.62672
609 1 0 9.6 3.2 -11.4104
610 2 1.6 11.2 4.8 -9.51426
611 1 3.2 9.6 3.2 -11.5246
612 2 4.8 11.2 4.8 -9.58331
613 1 6.4 9.6 3.2 -11.6275
614 2 8 11.2 4.8 -9.58296
615 1 9.6 9.6 3.2 -11.6279
616 2 11.2 11.2 4.8 -9.6154
617 1 12.8 9.6 3.2 -11.5878
618 2 14.4 11.2 4.8 -9.51512
619 1 16 9.6 3.2 -11.458
620 2 17.6 11.2 4.8 -9.32943
621 1 19.2 9.6 3.2 -11.3484
622 1 20.8 11.2 4.8 -11.316
623 2 22.4 9.6 3.2 -9.48337
624 1 24 11.2 4.8 -11.5021
625 2 25.6 9.6 3.2 -9.59355
626 1 27.2 11.2 4.8 -11.3852
627 2 28.8 9.6 3.2 -9.43945
628 1 30.4 11.2 4.8 -11.3421
629 3 32 9.6 3.2 -10.9317
630 1 33.6 11.2 4.8 -11.3577
631 2 35.2 9.6 3.2 -9.45642
632 1 36.8 11.2 4.8 -11.4071
633 2 38.4 9.6 3.2 -9.43994
634 1 40 11.2 4.8 -11.415
635 1 41.6 9.6 3.2 -11.0841
636 1 43.2 11.2 4.8 -11.1824
637 1 44.8 9.6 3.2 -11.2961
638 1 46.4 11.2 4.8 -11.3461
639 1 48 9.6 3.2 -11.4398
640 2 49.6 11.2 4.8 -9.47625
641 1 0 12.8 3.2 -11.5514
642 3 1.6 14.4 4.8 -10.9973
643 1 3.2 12.8 3.2 -11.5508
644 2 4.8 14.4 4.8 -9.48102
645 1 6.4 12.8 3.2 -11.6279
646 3 8 14.4 4.8 -11.0362
647 1 9.6 12.8 3.2 -11.6916
648 3 11.2 14.4 4.8 -11.1575
649 1 12.8 12.8 3.2 -11.662
650 2 14.4 14.4 4.8 -9.47372
651 1 16 12.8 3.2 -11.4181
652 1 17.6 14.4 4.8 -11.3523
653 2 19.2 12.8 3.2 -9.56605
654 1 20.8 14.4 4.8 -11.4983
655 2 22.4 12.8 3.2 -9.5931
656 1 24 14.4 4.8 -11.5005
657 3 25.6 12.8 3.2 -10.854
658 1 27.2 14.4 4.8 -11.3648
659 1 28.8 12.8 3.2 -11.2174
660 3 30.4 14.4 4.8 -10.7462
661 1 32 12.8 3.2 -11.2997
662 2 33.6 14.4 4.8 -9.53116
663 2 35.2 12.8 3.2 -9.49083
664 2 36.8 14.4 4.8 -9.59465
665 2 38.4 12.8 3.2 -9.60153
666 3 40 14.4 4.8 -10.9989
667 1 41.6 12.8 3.2 -11.2958
668 3 43.2 14.4 4.8 -10.9804
669 1 44.8 12.8 3.2 -11.3638
670 2 46.4 14.4 4.8 -9.53047
671 1 48 12.8 3.2 -11.5199
672 2 49.6 14.4 4.8 -9.51488
673 1 0 16 3.2 -11.5249
674 2 1.6 17.6 4.8 -9.53429
675 1 3.2 16 3.2 -11.5887
676 1 4.8 17.6 4.8 -11.2581
677 1 6.4 16 3.2 -11.5224
678 2 8 17.6 4.8 -9.49433
679 1 9.6 16 3.2 -11.5233
680 2 11.2 17.6 4.8 -9.65414
681 1 12.8 16 3.2 -11.6248
682 3 14.4 17.6 4.8 -11.1721
683 1 16 16 3.2 -11.5218
684 1 17.6 17.6 4.8 -11.583
685 3 19.2 16 3.2 -10.9851
686 1 20.8 17.6 4.8 -11.5508
687 2 22.4 16 3.2 -9.56259
688 1 24 17.6 4.8 -11.3864
689 3 25.6 16 3.2 -10.8568
690 1 27.2 17.6 4.8 -11.3887
691 1 28.8 16 3.2 -11.4079
692 2 30.4 17.6 4.8 -9.43314
693 1 32 16 3.2 -11.5082
694 2 33.6 17.6 4.8 -9.58399
695 1 35.2 16 3.2 -11.6345
696 2 36.8 17.6 4.8 -9.43341
697 1 38.4 16 3.2 -11.6313
698 2 40 17.6 4.8 -9.51007
699 1 41.6 16 3.2 -11.5033
700 2 43.2 17.6 4.8 -9.7004
701 1 44.8 16 3.2 -11.5638
702 1 46.4 17.6 4.8 -11.4229
703 1 48 16 3.2 -11.4187
704 1 49.6 17.6 4.8 -11.3625
705 2 0 19.2 3.2 -9.49718
706 1 1.6 20.8 4.8 -11.4642
707 1 3.2 19.2 3.2 -11.5629
708 2 4.8 20.8 4.8 -9.38821
709 1 6.4 19.2 3.2 -11.5493
710 3 8 20.8 4.8 -11.0437
711 1 9.6 19.2 3.2 -11.4422
712 2 11.2 20.8 4.8 -9.53456
713 2 12.8 19.2 3.2 -9.60798
714 2 14.4 20.8 4.8 -9.6204
715 3 16 19.2 3.2 -10.9976
716 1 17.6 20.8 4.8 -11.668
717 2 19.2 19.2 3.2 -9.58277
718 1 20.8 20.8 4.8 -11.5005
719 1 22.4 19.2 3.2 -11.1519
720 1 24 20.8 4.8 -11.2677
721 1 25.6 19.2 3.2 -11.2711
722 2 27.2 20.8 4.8 -9.23707
723 1 28.8 19.2 3.2 -11.4486
724 1 30.4 20.8 4.8 -11.3215
725 1 32 19.2 3.2 -11.5538
726 2 33.6 20.8 4.8 -9.41735
727 1 35.2 19.2 3.2 -11.5817
728 1 36.8 20.8 4.8 -11.3764
729 1 38.4 19.2 3.2 -11.4511
730 1 40 20.8 4.8 -11.3338
731 1 41.6 19.2 3.2 -11.3883
732 1 43.2 20.8 4.8 -11.5935
733 2 44.8 19.2 3.2 -9.60757
734 1 46.4 20.8 4.8 -11.6098
735 2 48 19.2 3.2 -9.55162
736 1 49.6 20.8 4.8 -11.5133
737 1 0 22.4 3.2 -11.5106
738 2 1.6 24 4.8 -9.6014
739 1 3.2 22.4 3.2 -11.61
740 2 4.8 24 4.8 -9.47373
741 1 6.4 22.4 3.2 -11.7532
742 3 8 24 4.8 -11.0417
743 1 9.6 22.4 3.2 -11.6473
744 2 11.2 24 4.8 -9.48851
745 1 12.8 22.4 3.2 -11.4905
746 1 14.4 24 4.8 -11.4474
747 1 16 22.4 3.2 -11.4011
748 1 17.6 24 4.8 -11.5643
749 3 19.2 22.4 3.2 -10.9095
750 1 20.8 24 4.8 -11.5218
751 1 22.4 22.4 3.2 -11.3423
752 2 24 24 4.8 -9.45659
753 1 25.6 22.4 3.2 -11.269
754 1 27.2 24 4.8 -11.2508
755 1 28.8 22.4 3.2 -11.3397
756 1 30.4 24 4.8 -11.4514
757 1 32 22.4 3.2 -11.3995
758 1 33.6 24 4.8 -11.5886
759 1 35.2 22.4 3.2 -11.3706
760 1 36.8 24 4.8 -11.5147
761 2 38.4 22.4 3.2 -9.52668
762 1 40 24 4.8 -11.5867
763 2 41.6 22.4 3.2 -9.54563
764 1 43.2 24 4.8 -11.7201
765 3 44.8 22.4 3.2 -11.126
766 1 46.4 24 4.8 -11.7884
767 3 48 22.4 3.2 -10.9933
768 1 49.6 24 4.8 -11.6913
769 2 0 25.6 3.2 -9.63956
771 1 3.2 25.6 3.2 -11.568
773 1 6.4 25.6 3.2 -11.6745
775 1 9.6 25.6 3.2 -11.7449
777 1 12.8 25.6 3.2 -11.5115
779 1 16 25.6 3.2 -11.2099
781 2 19.2 25.6 3.2 -9.52944
783 1 22.4 25.6 3.2 -11.3315
785 1 25.6 25.6 3.2 -11.3759
787 3 28.8 25.6 3.2 -10.7945
789 3 32 25.6 3.2 -11.1174
791 2 35.2 25.6 3.2 -9.52932
793 3 38.4 25.6 3.2 -10.8529
795 3 41.6 25.6 3.2 -10.999
797 3 44.8 25.6 3.2 -11.083
799 3 48 25.6 3.2 -11.1282
770 1 1.6 27.2 4.8 -11.4988
801 1 0 28.8 3.2 -11.4457
772 1 4.8 27.2 4.8 -11.313
803 1 3.2 28.8 3.2 -11.3674
774 3 8 27.2 4.8 -10.9024
805 1 6.4 28.8 3.2 -11.4254
776 1 11.2 27.2 4.8 -11.4954
807 2 9.6 28.8 3.2 -9.63277
778 1 14.4 27.2 4.8 -11.4217
809 2 12.8 28.8 3.2 -9.52318
780 1 17.6 27.2 4.8 -11.5361
811 1 16 28.8 3.2 -11.2594
782 1 20.8 27.2 4.8 -11.3729
813 2 19.2 28.8 3.2 -9.32055
784 2 24 27.2 4.8 -9.48938
815 1 22.4 28.8 3.2 -11.4076
817 1 25.6 28.8 3.2 -11.4183
786 1 27.2 27.2 4.8 -11.2365
819 1 28.8 28.8 3.2 -11.3908
788 2 30.4 27.2 4.8 -9.58295
821 2 32 28.8 3.2 -9.53436
790 1 33.6 27.2 4.8 -11.5523
823 1 35.2 28.8 3.2 -11.3925
792 1 36.8 27.2 4.8 -11.4403
825 1 38.4 28.8 3.2 -11.438
794 1 40 27.2 4.8 -11.4345
827 1 41.6 28.8 3.2 -11.2558
796 1 43.2 27.2 4.8 -11.5423
829 1 44.8 28.8 3.2 -11.2939
798 1 46.4 27.2 4.8 -11.6614
831 3 48 28.8 3.2 -10.8057
800 1 49.6 27.2 4.8 -11.65
802 2 1.6 30.4 4.8 -9.49677
833 1 0 32 3.2 -11.5329
804 1 4.8 30.4 4.8 -11.408
835 1 3.2 32 3.2 -11.4966
806 1 8 30.4 4.8 -11.5978
837 2 6.4 32 3.2 -9.40458
808 1 11.2 30.4 4.8 -11.585
839 3 9.6 32 3.2 -10.9519
810 1 14.4 30.4 4.8 -11.559
841 2 12.8 32 3.2 -9.51488
812 1 17.6 30.4 4.8 -11.4907
843 2 16 32 3.2 -9.32028
814 1 20.8 30.4 4.8 -11.3628
845 1 19.2 32 3.2 -11.1603
816 3 24 30.4 4.8 -10.9949
847 1 22.4 32 3.2 -11.409
849 1 25.6 32 3.2 -11.6504
818 1 27.2 30.4 4.8 -11.2887
851 1 28.8 32 3.2 -11.4757
820 2 30.4 30.4 4.8 -9.39835
853 1 32 32 3.2 -11.3031
822 2 33.6 30.4 4.8 -9.50617
855 2 35.2 32 3.2 -9.47498
824 2 36.8 30.4 4.8 -9.63127
857 3 38.4 32 3.2 -10.911
826 1 40 30.4 4.8 -11.4959
859 1 41.6 32 3.2 -11.2459
828 1 43.2 30.4 4.8 -11.377
861 1 44.8 32 3.2 -11.1616
830 1 46.4 30.4 4.8 -11.344
863 1 48 32 3.2 -11.3659
832 1 49.6 30.4 4.8 -11.4433
834 2 1.6 33.6 4.8 -9.59806
865 1 0 35.2 3.2 -11.7826
836 1 4.8 33.6 4.8 -11.3388
867 1 3.2 35.2 3.2 -11.4879
838 1 8 33.6 4.8 -11.5019
869 1 6.4 35.2 3.2 -11.1875
840 1 11.2 33.6 4.8 -11.5382
871 1 9.6 35.2 3.2 -11.1547
842 1 14.4 33.6 4.8 -11.5232
873 1 12.8 35.2 3.2 -11.239
844 1 17.6 33.6 4.8 -11.3725
875 1 16 35.2 3.2 -11.3418
846 1 20.8 33.6 4.8 -11.2411
877 1 19.2 35.2 3.2 -11.2611
848 3 24 33.6 4.8 -11.0801
879 1 22.4 35.2 3.2 -11.5082
881 1 25.6 35.2 3.2 -11.5829
850 3 27.2 33.6 4.8 -10.849
883 1 28.8 35.2 3.2 -11.4774
852 1 30.4 33.6 4.8 -11.2921
885 1 32 35.2 3.2 -11.4757
854 1 33.6 33.6 4.8 -11.3772
887 1 35.2 35.2 3.2 -11.4297
856 1 36.8 33.6 4.8 -11.348
889 1 38.4 35.2 3.2 -11.4063
858 1 40 33.6 4.8 -11.407
891 1 41.6 35.2 3.2 -11.2805
860 1 43.2 33.6 4.8 -11.2926
893 1 44.8 35.2 3.2 -11.3294
862 1 46.4 33.6 4.8 -11.3855
895 1 48 35.2 3.2 -11.6251
864 3 49.6 33.6 4.8 -10.796
866 3 1.6 36.8 4.8 -10.8989
897 1 0 38.4 3.2 -11.61
868 1 4.8 36.8 4.8 -11.3882
899 1 3.2 38.4 3.2 -11.4951
870 1 8 36.8 4.8 -11.5054
901 2 6.4 38.4 3.2 -9.41404
872 1 11.2 36.8 4.8 -11.4838
903 3 9.6 38.4 3.2 -10.8531
874 2 14.4 36.8 4.8 -9.62767
905 1 12.8 38.4 3.2 -11.4063
876 3 17.6 36.8 4.8 -10.8756
907 1 16 38.4 3.2 -11.4377
878 2 20.8 36.8 4.8 -9.55184
909 1 19.2 38.4 3.2 -11.5106
880 2 24 36.8 4.8 -9.43327
911 1 22.4 38.4 3.2 -11.5526
913 1 25.6 38.4 3.2 -11.3945
882 2 27.2 36.8 4.8 -9.55372
915 1 28.8 38.4 3.2 -11.4789
884 2 30.4 36.8 4.8 -9.45568
917 1 32 38.4 3.2 -11.6114
886 3 33.6 36.8 4.8 -10.9433
919 1 35.2 38.4 3.2 -11.682
888 1 36.8 36.8 4.8 -11.4091
921 1 38.4 38.4 3.2 -11.6806
890 3 40 36.8 4.8 -10.8923
923 1 41.6 38.4 3.2 -11.4077
892 1 43.2 36.8 4.8 -11.4518
925 1 44.8 38.4 3.2 -11.3648
894 3 46.4 36.8 4.8 -10.9732
927 1 48 38.4 3.2 -11.508
896 3 49.6 36.8 4.8 -11.0419
898 2 1.6 40 4.8 -9.49537
929 2 0 41.6 3.2 -9.47213
900 1 4.8 40 4.8 -11.4884
931 3 3.2 41.6 3.2 -10.946
902 1 8 40 4.8 -11.5827
933 1 6.4 41.6 3.2 -11.2578
904 1 11.2 40 4.8 -11.5764
935 2 9.6 41.6 3.2 -9.62058
906 1 14.4 40 4.8 -11.4888
937 3 12.8 41.6 3.2 -10.9905
908 1 17.6 40 4.8 -11.5153
939 3 16 41.6 3.2 -10.9011
910 2 20.8 40 4.8 -9.53422
941 1 19.2 41.6 3.2 -11.4209
912 1 24 40 4.8 -11.369
943 2 22.4 41.6 3.2 -9.62956
945 1 25.6 41.6 3.2 -11.4373
914 3 27.2 40 4.8 -10.8593
947 1 28.8 41.6 3.2 -11.4926
916 1 30.4 40 4.8 -11.2877
949 1 32 41.6 3.2 -11.5481
918 2 33.6 40 4.8 -9.58726
951 1 35.2 41.6 3.2 -11.7245
920 2 36.8 40 4.8 -9.54928
953 1 38.4 41.6 3.2 -11.6915
922 3 40 40 4.8 -11.0786
955 1 41.6 41.6 3.2 -11.4366
924 1 43.2 40 4.8 -11.4182
957 1 44.8 41.6 3.2 -11.3617
926 2 46.4 40 4.8 -9.49135
959 1 48 41.6 3.2 -11.3903
928 1 49.6 40 4.8 -11.3433
930 1 1.6 43.2 4.8 -11.5416
961 1 0 44.8 3.2 -11.3594
932 1 4.8 43.2 4.8 -11.5578
963 2 3.2 44.8 3.2 -9.51547
934 1 8 43.2 4.8 -11.5578
965 2 6.4 44.8 3.2 -9.41485
936 2 11.2 43.2 4.8 -9.59034
967 2 9.6 44.8 3.2 -9.57495
938 1 14.4 43.2 4.8 -11.6089
969 2 12.8 44.8 3.2 -9.51618
940 1 17.6 43.2 4.8 -11.4358
971 2 16 44.8 3.2 -9.55394
942 1 20.8 43.2 4.8 -11.4832
973 1 19.2 44.8 3.2 -11.2142
944 1 24 43.2 4.8 -11.5678
975 3 22.4 44.8 3.2 -11.0816
977 2 25.6 44.8 3.2 -9.63409
946 2 27.2 43.2 4.8 -9.5751
979 2 28.8 44.8 3.2 -9.52916
948 3 30.4 43.2 4.8 -10.9453
981 1 32 44.8 3.2 -11.6386
950 3 33.6 43.2 4.8 -11.0846
983 1 35.2 44.8 3.2 -11.7226
952 2 36.8 43.2 4.8 -9.61528
985 1 38.4 44.8 3.2 -11.6301
954 2 40 43.2 4.8 -9.59374
987 2 41.6 44.8 3.2 -9.60522
956 2 43.2 43.2 4.8 -9.5114
989 1 44.8 44.8 3.2 -11.4772
958 1 46.4 43.2 4.8 -11.2968
991 1 48 44.8 3.2 -11.4427
960 2 49.6 43.2 4.8 -9.32866
962 1 1.6 46.4 4.8 -11.3332
993 1 0 48 3.2 -11.3739
964 1 4.8 46.4 4.8 -11.4343
995 2 3.2 48 3.2 -9.40841
966 1 8 46.4 4.8 -11.3883
997 1 6.4 48 3.2 -11.3505
968 1 11.2 46.4 4.8 -11.3574
999 1 9.6 48 3.2 -11.4511
970 1 14.4 46.4 4.8 -11.4056
1001 1 12.8 48 3.2 -11.3797
972 1 17.6 46.4 4.8 -11.37
1003 3 16 48 3.2 -10.9947
974 1 20.8 46.4 4.8 -11.4539
1005 2 19.2 48 3.2 -9.51411
976 1 24 46.4 4.8 -11.6885
1007 3 22.4 48 3.2 -11.1279
1009 2 25.6 48 3.2 -9.54525
978 1 27.2 46.4 4.8 -11.5492
1011 1 28.8 48 3.2 -11.3739
980 2 30.4 46.4 4.8 -9.6892
1013 1 32 48 3.2 -11.5868
982 3 33.6 46.4 4.8 -11.1214
1015 1 35.2 48 3.2 -11.6786
984 2 36.8 46.4 4.8 -9.60022
1017 1 38.4 48 3.2 -11.4587
986 1 40 46.4 4.8 -11.442
1019 1 41.6 48 3.2 -11.4345
988 3 43.2 46.4 4.8 -11.0408
1021 1 44.8 48 3.2 -11.5579
990 2 46.4 46.4 4.8 -9.51463
1023 1 48 48 3.2 -11.5496
992 2 49.6 46.4 4.8 -9.51559
994 1 1.6 49.6 4.8 -11.3873
996 1 4.8 49.6 4.8 -11.3873
998 2 8 49.6 4.8 -9.43958
1000 2 11.2 49.6 4.8 -9.44892
1002 3 14.4 49.6 4.8 -11.0703
1004 1 17.6 49.6 4.8 -11.5353
1006 1 20.8 49.6 4.8 -11.5198
1008 1 24 49.6 4.8 -11.6325
1010 1 27.2 49.6 4.8 -11.3628
1012 3 30.4 49.6 4.8 -10.7736
1014 2 33.6 49.6 4.8 -9.61226
1016 1 36.8 49.6 4.8 -11.4335
1018 1 40 49.6 4.8 -11.2478
1020 3 43.2 49.6 4.8 -10.8107
1022 2 46.4 49.6 4.8 -9.43867
1024 2 49.6 49.6 4.8 -9.47749
1025 1 0 0 6.4 -11.5222
1026 3 1.6 1.6 8 -11.113
1027 2 3.2 0 6.4 -9.67262
1028 2 4.8 1.6 8 -9.59833
1029 1 6.4 0 6.4 -11.4913
1030 2 8 1.6 8 -9.515
1031 1 9.6 0 6.4 -11.5205
1032 2 11.2 1.6 8 -9.40685
1033 1 12.8 0 6.4 -11.6185
1034 2 14.4 1.6 8 -9.47345
1035 1 16 0 6.4 -11.5578
1036 1 17.6 1.6 8 -11.189
1037 1 19.2 0 6.4 -11.2324
1038 1 20.8 1.6 8 -11.1528
1039 1 22.4 0 6.4 -11.4439
1040 2 24 1.6 8 -9.5805
1041 1 25.6 0 6.4 -11.4863
1042 3 27.2 1.6 8 -10.848
1043 1 28.8 0 6.4 -11.2991
1044 1 30.4 1.6 8 -11.246
1045 1 32 0 6.4 -11.2395
1046 1 33.6 1.6 8 -11.3033
1047 1 35.2 0 6.4 -11.2877
1048 1 36.8 1.6 8 -11.5827
1049 2 38.4 0 6.4 -9.45494
1050 1 40 1.6 8 -11.4404
1051 1 41.6 0 6.4 -11.3922
1052 1 43.2 1.6 8 -11.3234
1053 1 44.8 0 6.4 -11.4405
1054 1 46.4 1.6 8 -11.3865
1055 1 48 0 6.4 -11.4822
1056 2 49.6 1.6 8 -9.59388
1057 1 0 3.2 6.4 -11.6558
1058 3 1.6 4.8 8 -11.0352
1059 2 3.2 3.2 6.4 -9.62539
1060 1 4.8 4.8 8 -11.3737
1061 1 6.4 3.2 6.4 -11.5298
1062 3 8 4.8 8 -10.9013
1063 1 9.6 3.2 6.4 -11.5943
1064 2 11.2 4.8 8 -9.64701
1065 1 12.8 3.2 6.4 -11.6229
1066 2 14.4 4.8 8 -9.58343
1067 1 16 3.2 6.4 -11.5345
1068 2 17.6 4.8 8 -9.43405
1069 1 19.2 3.2 6.4 -11.2795
1070 2 20.8 4.8 8 -9.36666
1071 1 22.4 3.2 6.4 -11.4069
1072 3 24 4.8 8 -10.9951
1073 1 25.6 3.2 6.4 -11.5638
1074 3 27.2 4.8 8 -10.9479
1075 1 28.8 3.2 6.4 -11.3294
1076 2 30.4 4.8 8 -9.36626
1077 1 32 3.2 6.4 -11.1225
1078 1 33.6 4.8 8 -11.4251
1079 2 35.2 3.2 6.4 -9.3668
1080 1 36.8 4.8 8 -11.3821
1081 2 38.4 3.2 6.4 -9.53335
1082 1 40 4.8 8 -11.248
1083 1 41.6 3.2 6.4 -11.4132
1084 1 43.2 4.8 8 -11.3111
1085 1 44.8 3.2 6.4 -11.4474
1086 2 46.4 4.8 8 -9.49598
1087 1 48 3.2 6.4 -11.4662
1088 2 49.6 4.8 8 -9.64701
1089 1 0 6.4 6.4 -11.7326
1090 2 1.6 8 8 -9.6162
1091 1 3.2 6.4 6.4 -11.5606
1092 2 4.8 8 8 -9.43341
1093 1 6.4 6.4 6.4 -11.5082
1094 2 8 8 8 -9.55081
1095 1 9.6 6.4 6.4 -11.6972
1096 3 11.2 8 8 -10.901
1097 1 12.8 6.4 6.4 -11.7245
1098 2 14.4 8 8 -9.56506
1099 1 16 6.4 6.4 -11.6889
1100 2 17.6 8 8 -9.49235
1101 1 19.2 6.4 6.4 -11.4427
1102 1 20.8 8 8 -11.2523
1103 1 22.4 6.4 6.4 -11.369