ITEM: TIMESTEP
0
ITEM: NUMBER OF ATOMS
8192
ITEM: BOX BOUNDS pp pp pp
0.0000000000000000e+00 5.1200000000000003e+01
0.0000000000000000e+00 5.1200000000000003e+01
0.0000000000000000e+00 5.1200000000000003e+01
ITEM: ATOMS id type x y z c_eng
1 1 0 0 0 -11.2882
2 1 1.6 1.6 1.6 -11.2595
3 2 3.2 0 0 -9.37268
4 2 4.8 1.6 1.6 -9.48912
5 1 6.4 0 0 -11.3135
6 2 8 1.6 1.6 -9.44945
7 1 9.6 0 0 -11.3644
8 2 11.2 1.6 1.6 -9.47384
9 1 12.8 0 0 -11.3903
10 3 14.4 1.6 1.6 -10.8563
11 2 16 0 0 -9.42022
12 1 17.6 1.6 1.6 -11.373
13 2 19.2 0 0 -9.5492
14 1 20.8 1.6 1.6 -11.5508
15 2 22.4 0 0 -9.61586
16 1 24 1.6 1.6 -11.4729
17 2 25.6 0 0 -9.3968
18 1 27.2 1.6 1.6 -11.4002
19 1 28.8 0 0 -11.2578
20 1 30.4 1.6 1.6 -11.5892
21 2 32 0 0 -9.51464
22 1 33.6 1.6 1.6 -11.4677
23 2 35.2 0 0 -9.5455
24 1 36.8 1.6 1.6 -11.4606
25 3 38.4 0 0 -10.85
26 1 40 1.6 1.6 -11.4589
27 2 41.6 0 0 -9.45127
28 1 43.2 1.6 1.6 -11.3599
29 1 44.8 0 0 -11.3232
30 1 46.4 1.6 1.6 -11.2537
31 1 48 0 0 -11.165
32 2 49.6 1.6 1.6 -9.3668
33 1 0 3.2 0 -11.3233
34 2 1.6 4.8 1.6 -9.48179
35 1 3.2 3.2 0 -11.3865
36 3 4.8 4.8 1.6 -10.9981
37 1 6.4 3.2 0 -11.4067
38 3 8 4.8 1.6 -11.0437
39 1 9.6 3.2 0 -11.5005
40 3 11.2 4.8 1.6 -11.1285
41 1 12.8 3.2 0 -11.6182
42 3 14.4 4.8 1.6 -10.9966
43 1 16 3.2 0 -11.4353
44 1 17.6 4.8 1.6 -11.3067
45 2 19.2 3.2 0 -9.47346
46 1 20.8 4.8 1.6 -11.5898
47 3 22.4 3.2 0 -10.9502
48 1 24 4.8 1.6 -11.5012
49 1 25.6 3.2 0 -11.193
50 1 27.2 4.8 1.6 -11.436
51 2 28.8 3.2 0 -9.35026
52 1 30.4 4.8 1.6 -11.6279
53 3 32 3.2 0 -10.902
54 1 33.6 4.8 1.6 -11.5833
55 2 35.2 3.2 0 -9.55056
56 1 36.8 4.8 1.6 -11.5823
57 2 38.4 3.2 0 -9.61853
58 1 40 4.8 1.6 -11.5538
59 2 41.6 3.2 0 -9.51463
60 1 43.2 4.8 1.6 -11.3751
61 3 44.8 3.2 0 -10.6395
62 1 46.4 4.8 1.6 -11.2944
63 1 48 3.2 0 -11.3077
64 3 49.6 4.8 1.6 -10.7961
65 1 0 6.4 0 -11.3326
66 2 1.6 8 1.6 -9.43367
67 1 3.2 6.4 0 -11.4061
68 3 4.8 8 1.6 -10.9973
69 1 6.4 6.4 0 -11.5089
70 3 8 8 1.6 -11.0841
71 1 9.6 6.4 0 -11.5508
72 3 11.2 8 1.6 -11.0421
73 1 12.8 6.4 0 -11.5689
74 1 14.4 8 1.6 -11.5344
75 2 16 6.4 0 -9.608
76 1 17.6 8 1.6 -11.4102
77 3 19.2 6.4 0 -10.9507
78 1 20.8 8 1.6 -11.4862
79 3 22.4 6.4 0 -11.0862
80 1 24 8 1.6 -11.5502
81 2 25.6 6.4 0 -9.43881
82 1 27.2 8 1.6 -11.6275
83 2 28.8 6.4 0 -9.47676
84 1 30.4 8 1.6 -11.6897
85 2 32 6.4 0 -9.5876
86 1 33.6 8 1.6 -11.7511
87 3 35.2 6.4 0 -10.9965
88 1 36.8 8 1.6 -11.7511
89 3 38.4 6.4 0 -11.0846
90 1 40 8 1.6 -11.4998
91 2 41.6 6.4 0 -9.56154
92 1 43.2 8 1.6 -11.2846
93 1 44.8 6.4 0 -11.3226
94 2 46.4 8 1.6 -9.23883
95 1 48 6.4 0 -11.2699
96 1 49.6 8 1.6 -11.3369
97 1 0 9.6 0 -11.3327
98 2 1.6 11.2 1.6 -9.51464
99 1 3.2 9.6 0 -11.3749
100 2 4.8 11.2 1.6 -9.58254
101 1 6.4 9.6 0 -11.4066
102 2 8 11.2 1.6 -9.58231
103 1 9.6 9.6 0 -11.4897
104 2 11.2 11.2 1.6 -9.59587
105 2 12.8 9.6 0 -9.5728
106 2 14.4 11.2 1.6 -9.5706
107 3 16 9.6 0 -11.0382
108 1 17.6 11.2 1.6 -11.4223
109 2 19.2 9.6 0 -9.55069
110 1 20.8 11.2 1.6 -11.4511
111 2 22.4 9.6 0 -9.55275
112 1 24 11.2 1.6 -11.5984
113 2 25.6 9.6 0 -9.54909
114 1 27.2 11.2 1.6 -11.5119
115 2 28.8 9.6 0 -9.55128
116 1 30.4 11.2 1.6 -11.4415
117 3 32 9.6 0 -10.9011
118 1 33.6 11.2 1.6 -11.4725
119 3 35.2 9.6 0 -10.9949
120 1 36.8 11.2 1.6 -11.5181
121 3 38.4 9.6 0 -10.9954
122 1 40 11.2 1.6 -11.4516
123 1 41.6 9.6 0 -11.2785
124 1 43.2 11.2 1.6 -11.3006
125 1 44.8 9.6 0 -11.3403
126 2 46.4 11.2 1.6 -9.52722
127 1 48 9.6 0 -11.3306
128 2 49.6 11.2 1.6 -9.4488
129 1 0 12.8 0 -11.4781
130 3 1.6 14.4 1.6 -10.9941
131 1 3.2 12.8 0 -11.4187
132 3 4.8 14.4 1.6 -10.9977
133 1 6.4 12.8 0 -11.4081
134 3 8 14.4 1.6 -10.9949
135 1 9.6 12.8 0 -11.4083
136 2 11.2 14.4 1.6 -9.43394
137 1 12.8 12.8 0 -11.3964
138 1 14.4 14.4 1.6 -11.2928
139 2 16 12.8 0 -9.47846
140 1 17.6 14.4 1.6 -11.3585
141 2 19.2 12.8 0 -9.54563
142 1 20.8 14.4 1.6 -11.5508
143 3 22.4 12.8 0 -11.0414
144 1 24 14.4 1.6 -11.5522
145 2 25.6 12.8 0 -9.59474
146 1 27.2 14.4 1.6 -11.4502
147 1 28.8 12.8 0 -11.311
148 2 30.4 14.4 1.6 -9.47384
149 1 32 12.8 0 -11.3732
150 2 33.6 14.4 1.6 -9.40739
151 1 35.2 12.8 0 -11.4243
152 2 36.8 14.4 1.6 -9.4908
153 2 38.4 12.8 0 -9.46125
154 1 40 14.4 1.6 -11.2993
155 2 41.6 12.8 0 -9.32187
156 1 43.2 14.4 1.6 -11.3742
157 2 44.8 12.8 0 -9.41884
158 2 46.4 14.4 1.6 -9.41417
159 1 48 12.8 0 -11.4161
160 1 49.6 14.4 1.6 -11.3224
161 1 0 16 0 -11.6473
162 3 1.6 17.6 1.6 -11.0851
163 1 3.2 16 0 -11.6473
164 2 4.8 17.6 1.6 -9.61575
165 1 6.4 16 0 -11.491
166 2 8 17.6 1.6 -9.54525
167 1 9.6 16 0 -11.4098
168 2 11.2 17.6 1.6 -9.47385
169 1 12.8 16 0 -11.1823
170 1 14.4 17.6 1.6 -11.3027
171 1 16 16 0 -11.2258
172 1 17.6 17.6 1.6 -11.5544
173 2 19.2 16 0 -9.47598
174 1 20.8 17.6 1.6 -11.6279
175 2 22.4 16 0 -9.58366
176 1 24 17.6 1.6 -11.4498
177 2 25.6 16 0 -9.53487
178 3 27.2 17.6 1.6 -10.996
179 1 28.8 16 0 -11.6624
180 3 30.4 17.6 1.6 -10.993
181 1 32 16 0 -11.5867
182 1 33.6 17.6 1.6 -11.3193
183 1 35.2 16 0 -11.5509
184 2 36.8 17.6 1.6 -9.49118
185 1 38.4 16 0 -11.4413
186 1 40 17.6 1.6 -11.2886
187 1 41.6 16 0 -11.2244
188 2 43.2 17.6 1.6 -9.37266
189 1 44.8 16 0 -11.4045
190 2 46.4 17.6 1.6 -9.47806
191 1 48 16 0 -11.5187
192 2 49.6 17.6 1.6 -9.40403
193 1 0 19.2 0 -11.5888
194 2 1.6 20.8 1.6 -9.52652
195 1 3.2 19.2 0 -11.6915
196 2 4.8 20.8 1.6 -9.50946
197 1 6.4 19.2 0 -11.5502
198 2 8 20.8 1.6 -9.5832
199 1 9.6 19.2 0 -11.5242
200 3 11.2 20.8 1.6 -10.902
201 1 12.8 19.2 0 -11.3792
202 1 14.4 20.8 1.6 -11.2519
203 2 16 19.2 0 -9.36585
204 1 17.6 20.8 1.6 -11.5054
205 2 19.2 19.2 0 -9.61586
206 1 20.8 20.8 1.6 -11.5821
207 2 22.4 19.2 0 -9.47714
208 1 24 20.8 1.6 -11.4077
209 1 25.6 19.2 0 -11.4556
210 3 27.2 20.8 1.6 -10.8502
211 1 28.8 19.2 0 -11.7205
212 2 30.4 20.8 1.6 -9.58028
213 1 32 19.2 0 -11.5862
214 2 33.6 20.8 1.6 -9.40766
215 1 35.2 19.2 0 -11.5514
216 2 36.8 20.8 1.6 -9.41218
217 1 38.4 19.2 0 -11.4511
218 1 40 20.8 1.6 -11.3687
219 2 41.6 19.2 0 -9.34124
220 1 43.2 20.8 1.6 -11.4593
221 1 44.8 19.2 0 -11.3123
222 1 46.4 20.8 1.6 -11.3359
223 1 48 19.2 0 -11.4416
224 1 49.6 20.8 1.6 -11.3135
225 2 0 22.4 0 -9.41852
226 1 1.6 24 1.6 -11.214
227 1 3.2 22.4 0 -11.5256
228 2 4.8 24 1.6 -9.39759
229 1 6.4 22.4 0 -11.662
230 2 8 24 1.6 -9.51476
231 1 9.6 22.4 0 -11.659
232 2 11.2 24 1.6 -9.52697
233 1 12.8 22.4 0 -11.4285
234 1 14.4 24 1.6 -11.276
235 1 16 22.4 0 -11.2486
236 1 17.6 24 1.6 -11.5103
237 3 19.2 22.4 0 -10.9504
238 1 20.8 24 1.6 -11.5238
239 2 22.4 22.4 0 -9.56994
240 2 24 24 1.6 -9.52557
241 1 25.6 22.4 0 -11.4072
242 1 27.2 24 1.6 -11.3115
243 1 28.8 22.4 0 -11.3739
244 1 30.4 24 1.6 -11.3867
245 1 32 22.4 0 -11.3893
246 1 33.6 24 1.6 -11.4067
247 1 35.2 22.4 0 -11.3695
248 1 36.8 24 1.6 -11.4914
249 1 38.4 22.4 0 -11.3465
250 1 40 24 1.6 -11.5823
251 2 41.6 22.4 0 -9.51475
252 1 43.2 24 1.6 -11.6897
253 2 44.8 22.4 0 -9.51438
254 1 46.4 24 1.6 -11.662
255 2 48 22.4 0 -9.51007
256 1 49.6 24 1.6 -11.4677
257 2 0 25.6 0 -9.52075
259 1 3.2 25.6 0 -11.42
261 1 6.4 25.6 0 -11.5502
263 1 9.6 25.6 0 -11.5059
265 2 12.8 25.6 0 -9.46034
267 3 16 25.6 0 -10.9519
269 2 19.2 25.6 0 -9.47385
271 2 22.4 25.6 0 -9.61657
273 1 25.6 25.6 0 -11.5855
275 2 28.8 25.6 0 -9.49736
277 2 32 25.6 0 -9.44969
279 3 35.2 25.6 0 -10.8597
281 2 38.4 25.6 0 -9.48851
283 2 41.6 25.6 0 -9.55299
285 2 44.8 25.6 0 -9.58689
287 3 48 25.6 0 -11.0416
258 1 1.6 27.2 1.6 -11.3574
289 2 0 28.8 0 -9.61747
260 2 4.8 27.2 1.6 -9.32959
291 1 3.2 28.8 0 -11.3369
262 1 8 27.2 1.6 -11.3741
293 1 6.4 28.8 0 -11.3875
264 1 11.2 27.2 1.6 -11.4191
295 2 9.6 28.8 0 -9.49288
266 1 14.4 27.2 1.6 -11.5827
297 2 12.8 28.8 0 -9.51536
268 1 17.6 27.2 1.6 -11.5833
299 2 16 28.8 0 -9.4732
270 1 20.8 27.2 1.6 -11.3311
301 1 19.2 28.8 0 -11.1915
272 2 24 27.2 1.6 -9.63374
303 1 22.4 28.8 0 -11.346
305 1 25.6 28.8 0 -11.6612
274 2 27.2 27.2 1.6 -9.5693
307 1 28.8 28.8 0 -11.4395
276 1 30.4 27.2 1.6 -11.3649
309 1 32 28.8 0 -11.3021
278 1 33.6 27.2 1.6 -11.4076
311 1 35.2 28.8 0 -11.3484
280 1 36.8 27.2 1.6 -11.4086
313 1 38.4 28.8 0 -11.2222
282 1 40 27.2 1.6 -11.4528
315 1 41.6 28.8 0 -11.2929
284 1 43.2 27.2 1.6 -11.4962
317 1 44.8 28.8 0 -11.2884
286 1 46.4 27.2 1.6 -11.618
319 3 48 28.8 0 -10.9917
288 1 49.6 27.2 1.6 -11.5812
290 2 1.6 30.4 1.6 -9.4116
321 1 0 32 0 -11.5208
292 1 4.8 30.4 1.6 -11.2153
323 1 3.2 32 0 -11.2651
294 1 8 30.4 1.6 -11.4921
325 1 6.4 32 0 -11.2311
296 1 11.2 30.4 1.6 -11.6275
327 2 9.6 32 0 -9.52669
298 1 14.4 30.4 1.6 -11.6606
329 3 12.8 32 0 -10.9504
300 1 17.6 30.4 1.6 -11.5887
331 2 16 32 0 -9.55336
302 1 20.8 30.4 1.6 -11.3429
333 3 19.2 32 0 -10.8948
304 2 24 30.4 1.6 -9.51451
335 1 22.4 32 0 -11.4512
337 1 25.6 32 0 -11.6279
306 2 27.2 30.4 1.6 -9.51412
339 1 28.8 32 0 -11.5508
308 1 30.4 30.4 1.6 -11.2242
341 1 32 32 0 -11.4887
310 2 33.6 30.4 1.6 -9.39784
343 1 35.2 32 0 -11.449
312 2 36.8 30.4 1.6 -9.39772
345 1 38.4 32 0 -11.4352
314 2 40 30.4 1.6 -9.32959
347 1 41.6 32 0 -11.4161
316 1 43.2 30.4 1.6 -11.3992
349 2 44.8 32 0 -9.46126
318 1 46.4 30.4 1.6 -11.5856
351 3 48 32 0 -10.9869
320 1 49.6 30.4 1.6 -11.5916
322 2 1.6 33.6 1.6 -9.40779
353 1 0 35.2 0 -11.5568
324 1 4.8 33.6 1.6 -11.2265
355 1 3.2 35.2 0 -11.409
326 1 8 33.6 1.6 -11.4343
357 1 6.4 35.2 0 -11.233
328 1 11.2 33.6 1.6 -11.6897
359 2 9.6 35.2 0 -9.43328
330 1 14.4 33.6 1.6 -11.6192
361 3 12.8 35.2 0 -11.0854
332 1 17.6 33.6 1.6 -11.5091
363 2 16 35.2 0 -9.54574
334 2 20.8 33.6 1.6 -9.60231
365 2 19.2 35.2 0 -9.57724
336 2 24 33.6 1.6 -9.54884
367 1 22.4 35.2 0 -11.5351
369 1 25.6 35.2 0 -11.5192
338 2 27.2 33.6 1.6 -9.58332
371 1 28.8 35.2 0 -11.5514
340 2 30.4 33.6 1.6 -9.50907
373 1 32 35.2 0 -11.6187
342 2 33.6 33.6 1.6 -9.514
375 1 35.2 35.2 0 -11.6156
344 2 36.8 33.6 1.6 -9.58332
377 1 38.4 35.2 0 -11.6279
346 2 40 33.6 1.6 -9.47713
379 1 41.6 35.2 0 -11.3516
348 1 43.2 33.6 1.6 -11.2125
381 1 44.8 35.2 0 -11.2806
350 1 46.4 33.6 1.6 -11.3725
383 1 48 35.2 0 -11.3973
352 1 49.6 33.6 1.6 -11.4104
354 2 1.6 36.8 1.6 -9.49079
385 1 0 38.4 0 -11.4724
356 1 4.8 36.8 1.6 -11.4241
387 2 3.2 38.4 0 -9.56817
358 1 8 36.8 1.6 -11.5584
389 3 6.4 38.4 0 -10.9015
360 1 11.2 36.8 1.6 -11.6582
391 2 9.6 38.4 0 -9.5832
362 1 14.4 36.8 1.6 -11.5867
393 2 12.8 38.4 0 -9.61808
364 1 17.6 36.8 1.6 -11.4436
395 2 16 38.4 0 -9.51463
366 2 20.8 36.8 1.6 -9.60211
397 3 19.2 38.4 0 -10.8994
368 2 24 36.8 1.6 -9.66086
399 2 22.4 38.4 0 -9.60869
401 1 25.6 38.4 0 -11.5156
370 2 27.2 36.8 1.6 -9.514
403 1 28.8 38.4 0 -11.4962
372 3 30.4 36.8 1.6 -11.0843
405 1 32 38.4 0 -11.7532
374 3 33.6 36.8 1.6 -11.0837
407 1 35.2 38.4 0 -11.7223
376 2 36.8 36.8 1.6 -9.61528
409 1 38.4 38.4 0 -11.662
378 2 40 36.8 1.6 -9.51463
411 1 41.6 38.4 0 -11.3759
380 1 43.2 36.8 1.6 -11.1898
413 2 44.8 38.4 0 -9.33025
382 2 46.4 36.8 1.6 -9.32991
415 1 48 38.4 0 -11.3153
384 2 49.6 36.8 1.6 -9.40779
386 1 1.6 40 1.6 -11.4754
417 3 0 41.6 0 -10.9016
388 1 4.8 40 1.6 -11.5815
419 3 3.2 41.6 0 -11.0851
390 1 8 40 1.6 -11.6279
421 2 6.4 41.6 0 -9.61504
392 1 11.2 40 1.6 -11.6279
423 2 9.6 41.6 0 -9.64602
394 1 14.4 40 1.6 -11.662
425 3 12.8 41.6 0 -11.0829
396 1 17.6 40 1.6 -11.5082
427 2 16 41.6 0 -9.58016
398 1 20.8 40 1.6 -11.3242
429 2 19.2 41.6 0 -9.34998
400 2 24 40 1.6 -9.53564
431 1 22.4 41.6 0 -11.3517
433 2 25.6 41.6 0 -9.41731
402 2 27.2 40 1.6 -9.53118
435 1 28.8 41.6 0 -11.434
404 3 30.4 40 1.6 -11.0421
437 1 32 41.6 0 -11.5077
406 2 33.6 40 1.6 -9.57919
439 1 35.2 41.6 0 -11.5887
408 2 36.8 40 1.6 -9.58308
441 1 38.4 41.6 0 -11.5892
410 2 40 40 1.6 -9.43841
443 1 41.6 41.6 0 -11.4523
412 1 43.2 40 1.6 -11.2822
445 2 44.8 41.6 0 -9.57141
414 1 46.4 40 1.6 -11.3673
447 2 48 41.6 0 -9.38209
416 1 49.6 40 1.6 -11.2682
418 1 1.6 43.2 1.6 -11.4997
449 2 0 44.8 0 -9.60293
420 1 4.8 43.2 1.6 -11.6601
451 2 3.2 44.8 0 -9.58308
422 1 8 43.2 1.6 -11.662
453 2 6.4 44.8 0 -9.58677
424 1 11.2 43.2 1.6 -11.7223
455 3 9.6 44.8 0 -11.1249
426 1 14.4 43.2 1.6 -11.7583
457 3 12.8 44.8 0 -11.245
428 1 17.6 43.2 1.6 -11.5308
459 3 16 44.8 0 -10.8976
430 1 20.8 43.2 1.6 -11.4101
461 1 19.2 44.8 0 -11.3544
432 1 24 43.2 1.6 -11.4902
463 3 22.4 44.8 0 -10.9037
465 2 25.6 44.8 0 -9.58388
434 1 27.2 43.2 1.6 -11.4727
467 2 28.8 44.8 0 -9.41468
436 2 30.4 43.2 1.6 -9.45442
469 1 32 44.8 0 -11.2921
438 1 33.6 43.2 1.6 -11.2602
471 1 35.2 44.8 0 -11.4232
440 3 36.8 43.2 1.6 -10.8056
473 1 38.4 44.8 0 -11.3975
442 1 40 43.2 1.6 -11.3224
475 1 41.6 44.8 0 -11.395
444 2 43.2 43.2 1.6 -9.55899
477 1 44.8 44.8 0 -11.4374
446 2 46.4 43.2 1.6 -9.53112
479 1 48 44.8 0 -11.3849
448 1 49.6 43.2 1.6 -11.4112
450 1 1.6 46.4 1.6 -11.4893
481 2 0 48 0 -9.5979
452 1 4.8 46.4 1.6 -11.5133
483 2 3.2 48 0 -9.47713
454 1 8 46.4 1.6 -11.5213
485 1 6.4 48 0 -11.2855
456 1 11.2 46.4 1.6 -11.597
487 3 9.6 48 0 -10.9057
458 1 14.4 46.4 1.6 -11.7203
489 3 12.8 48 0 -10.9494
460 1 17.6 46.4 1.6 -11.6192
491 3 16 48 0 -11.1699
462 1 20.8 46.4 1.6 -11.5862
493 2 19.2 48 0 -9.54968
464 1 24 46.4 1.6 -11.6919
495 2 22.4 48 0 -9.58296
497 2 25.6 48 0 -9.43301
466 1 27.2 46.4 1.6 -11.5508
499 1 28.8 48 0 -11.2233
468 1 30.4 46.4 1.6 -11.418
501 2 32 48 0 -9.3968
470 1 33.6 46.4 1.6 -11.345
503 2 35.2 48 0 -9.56919
472 2 36.8 46.4 1.6 -9.50193
505 1 38.4 48 0 -11.3193
474 2 40 46.4 1.6 -9.36667
507 1 41.6 48 0 -11.3522
476 3 43.2 46.4 1.6 -10.9486
509 1 44.8 48 0 -11.3739
478 2 46.4 46.4 1.6 -9.51476
511 1 48 48 0 -11.4629
480 2 49.6 46.4 1.6 -9.60385
482 1 1.6 49.6 1.6 -11.4019
484 1 4.8 49.6 1.6 -11.3753
486 2 8 49.6 1.6 -9.37863
488 1 11.2 49.6 1.6 -11.3681
490 1 14.4 49.6 1.6 -11.4854
492 1 17.6 49.6 1.6 -11.5858
494 1 20.8 49.6 1.6 -11.5949
496 1 24 49.6 1.6 -11.6279
498 1 27.2 49.6 1.6 -11.5061
500 1 30.4 49.6 1.6 -11.4729
502 1 33.6 49.6 1.6 -11.5584
504 1 36.8 49.6 1.6 -11.4013
506 1 40 49.6 1.6 -11.2607
508 2 43.2 49.6 1.6 -9.45174
510 2 46.4 49.6 1.6 -9.39733
512 2 49.6 49.6 1.6 -9.52664
513 1 0 0 3.2 -11.4662
514 2 1.6 1.6 4.8 -9.51413
515 1 3.2 0 3.2 -11.5067
516 3 4.8 1.6 4.8 -10.9501
517 1 6.4 0 3.2 -11.4774
518 1 8 1.6 4.8 -11.284
519 1 9.6 0 3.2 -11.36
520 1 11.2 1.6 4.8 -11.2217
521 1 12.8 0 3.2 -11.3133
522 2 14.4 1.6 4.8 -9.36612
523 1 16 0 3.2 -11.3627
524 1 17.6 1.6 4.8 -11.158
525 2 19.2 0 3.2 -9.30984
526 1 20.8 1.6 4.8 -11.3495
527 2 22.4 0 3.2 -9.47713
528 1 24 1.6 4.8 -11.2501
529 2 25.6 0 3.2 -9.47397
530 1 27.2 1.6 4.8 -11.372
531 3 28.8 0 3.2 -10.8053
532 1 30.4 1.6 4.8 -11.5577
533 2 32 0 3.2 -9.50958
534 1 33.6 1.6 4.8 -11.5251
535 1 35.2 0 3.2 -11.2885
536 2 36.8 1.6 4.8 -9.52731
537 1 38.4 0 3.2 -11.2372
538 2 40 1.6 4.8 -9.51171
539 1 41.6 0 3.2 -11.3784
540 2 43.2 1.6 4.8 -9.56772
541 1 44.8 0 3.2 -11.4698
542 2 46.4 1.6 4.8 -9.40779
543 1 48 0 3.2 -11.5544
544 2 49.6 1.6 4.8 -9.58399
545 1 0 3.2 3.2 -11.5509
546 2 1.6 4.8 4.8 -9.54847
547 1 3.2 3.2 3.2 -11.5827
548 2 4.8 4.8 4.8 -9.61563
549 1 6.4 3.2 3.2 -11.6217
550 2 8 4.8 4.8 -9.5446
551 1 9.6 3.2 3.2 -11.4976
552 2 11.2 4.8 4.8 -9.58169
553 1 12.8 3.2 3.2 -11.6119
554 2 14.4 4.8 4.8 -9.55057
555 1 16 3.2 3.2 -11.3277
556 1 17.6 4.8 4.8 -11.186
557 1 19.2 3.2 3.2 -11.1885
558 2 20.8 4.8 4.8 -9.45425
559 2 22.4 3.2 3.2 -9.45494
560 1 24 4.8 4.8 -11.3033
561 1 25.6 3.2 3.2 -11.1559
562 1 27.2 4.8 4.8 -11.3322
563 2 28.8 3.2 3.2 -9.51524
564 1 30.4 4.8 4.8 -11.4921
565 2 32 3.2 3.2 -9.51439
566 1 33.6 4.8 4.8 -11.4022
567 1 35.2 3.2 3.2 -11.3427
568 1 36.8 4.8 4.8 -11.5345
569 2 38.4 3.2 3.2 -9.49415
570 1 40 4.8 4.8 -11.5459
571 1 41.6 3.2 3.2 -11.3719
572 2 43.2 4.8 4.8 -9.41499
573 1 44.8 3.2 3.2 -11.2889
574 1 46.4 4.8 4.8 -11.1876
575 1 48 3.2 3.2 -11.4407
576 2 49.6 4.8 4.8 -9.63364
577 1 0 6.4 3.2 -11.6016
578 2 1.6 8 4.8 -9.54872
579 1 3.2 6.4 3.2 -11.6582
580 2 4.8 8 4.8 -9.57919
581 1 6.4 6.4 3.2 -11.7511
582 3 8 8 4.8 -11.1252
583 1 9.6 6.4 3.2 -11.7811
584 3 11.2 8 4.8 -11.126
585 1 12.8 6.4 3.2 -11.6872
586 3 14.4 8 4.8 -10.9963
587 1 16 6.4 3.2 -11.4079
588 2 17.6 8 4.8 -9.43881
589 1 19.2 6.4 3.2 -11.3391
590 2 20.8 8 4.8 -9.52655
591 2 22.4 6.4 3.2 -9.53179
592 1 24 8 4.8 -11.3724
593 2 25.6 6.4 3.2 -9.39759
594 1 27.2 8 4.8 -11.4209
595 2 28.8 6.4 3.2 -9.515
596 1 30.4 8 4.8 -11.4062
597 2 32 6.4 3.2 -9.51451
598 1 33.6 8 4.8 -11.4081
599 2 35.2 6.4 3.2 -9.46764
600 1 36.8 8 4.8 -11.4865
601 2 38.4 6.4 3.2 -9.58388
602 1 40 8 4.8 -11.4719
603 2 41.6 6.4 3.2 -9.49561
604 2 43.2 8 4.8 -9.48915
605 1 44.8 6.4 3.2 -11.3054
606 1 46.4 8 4.8 -11.349
607 2 48 6.4 3.2 -9.46545
608 2 49.6 8 4.8 -9.56381
609 1 0 9.6 3.2 -11.5508
610 2 1.6 11.2 4.8 -9.61797
611 1 3.2 9.6 3.2 -11.662
612 3 4.8 11.2 4.8 -11.04
613 1 6.4 9.6 3.2 -11.7532
614 3 8 11.2 4.8 -11.126
615 1 9.6 9.6 3.2 -11.7508
616 2 11.2 11.2 4.8 -9.67747
617 1 12.8 9.6 3.2 -11.6949
618 3 14.4 11.2 4.8 -11.0857
619 1 16 9.6 3.2 -11.5164
620 2 17.6 11.2 4.8 -9.43907
621 1 19.2 9.6 3.2 -11.3326
622 2 20.8 11.2 4.8 -9.52712
623 1 22.4 9.6 3.2 -11.4245
624 2 24 11.2 4.8 -9.61084
625 2 25.6 9.6 3.2 -9.59543
626 2 27.2 11.2 4.8 -9.60091
627 3 28.8 9.6 3.2 -10.9527
628 1 30.4 11.2 4.8 -11.4284
629 3 32 9.6 3.2 -10.9522
630 1 33.6 11.2 4.8 -11.3081
631 3 35.2 9.6 3.2 -10.9016
632 1 36.8 11.2 4.8 -11.3298
633 2 38.4 9.6 3.2 -9.48867
634 2 40 11.2 4.8 -9.49571
635 1 41.6 9.6 3.2 -11.3576
636 2 43.2 11.2 4.8 -9.59955
637 1 44.8 9.6 3.2 -11.3966
638 3 46.4 11.2 4.8 -10.9497
639 1 48 9.6 3.2 -11.5733
640 3 49.6 11.2 4.8 -11.0419
641 1 0 12.8 3.2 -11.5892
642 2 1.6 14.4 4.8 -9.58332
643 1 3.2 12.8 3.2 -11.6919
644 2 4.8 14.4 4.8 -9.64625
645 1 6.4 12.8 3.2 -11.7532
646 3 8 14.4 4.8 -11.1268
647 1 9.6 12.8 3.2 -11.6897
648 2 11.2 14.4 4.8 -9.61552
649 1 12.8 12.8 3.2 -11.5496
650 2 14.4 14.4 4.8 -9.53118
651 1 16 12.8 3.2 -11.4345
652 1 17.6 14.4 4.8 -11.2146
653 1 19.2 12.8 3.2 -11.2868
654 1 20.8 14.4 4.8 -11.3405
655 2 22.4 12.8 3.2 -9.53142
656 1 24 14.4 4.8 -11.3845
657 2 25.6 12.8 3.2 -9.56327
658 2 27.2 14.4 4.8 -9.52623
659 1 28.8 12.8 3.2 -11.4521
660 3 30.4 14.4 4.8 -10.9499
661 1 32 12.8 3.2 -11.4103
662 2 33.6 14.4 4.8 -9.55081
663 1 35.2 12.8 3.2 -11.3722
664 2 36.8 14.4 4.8 -9.54563
665 1 38.4 12.8 3.2 -11.4475
666 2 40 14.4 4.8 -9.62946
667 2 41.6 12.8 3.2 -9.49102
668 2 43.2 14.4 4.8 -9.59834
669 1 44.8 12.8 3.2 -11.5802
670 2 46.4 14.4 4.8 -9.58377
671 1 48 12.8 3.2 -11.5823
672 2 49.6 14.4 4.8 -9.43287
673 1 0 16 3.2 -11.5155
674 2 1.6 17.6 4.8 -9.5264
675 1 3.2 16 3.2 -11.6897
676 2 4.8 17.6 4.8 -9.43855
677 1 6.4 16 3.2 -11.7208
678 3 8 17.6 4.8 -10.9978
679 1 9.6 16 3.2 -11.7208
680 3 11.2 17.6 4.8 -10.9507
681 1 12.8 16 3.2 -11.5256
682 2 14.4 17.6 4.8 -9.53579
683 2 16 16 3.2 -9.41192
684 1 17.6 17.6 4.8 -11.4413
685 2 19.2 16 3.2 -9.43393
686 1 20.8 17.6 4.8 -11.5827
687 2 22.4 16 3.2 -9.47701
688 1 24 17.6 4.8 -11.4213
689 1 25.6 16 3.2 -11.4147
690 2 27.2 17.6 4.8 -9.51451
691 1 28.8 16 3.2 -11.617
692 2 30.4 17.6 4.8 -9.64886
693 1 32 16 3.2 -11.5943
694 2 33.6 17.6 4.8 -9.51412
695 1 35.2 16 3.2 -11.5514
696 3 36.8 17.6 4.8 -10.9507
697 1 38.4 16 3.2 -11.5005
698 3 40 17.6 4.8 -10.9512
699 1 41.6 16 3.2 -11.4767
700 3 43.2 17.6 4.8 -10.9524
701 1 44.8 16 3.2 -11.5502
702 2 46.4 17.6 4.8 -9.45126
703 1 48 16 3.2 -11.4498
704 1 49.6 17.6 4.8 -11.3491
705 1 0 19.2 3.2 -11.4395
706 2 1.6 20.8 4.8 -9.49757
707 1 3.2 19.2 3.2 -11.5538
708 1 4.8 20.8 4.8 -11.261
709 1 6.4 19.2 3.2 -11.5514
710 2 8 20.8 4.8 -9.4392
711 1 9.6 19.2 3.2 -11.6919
712 2 11.2 20.8 4.8 -9.54656
713 1 12.8 19.2 3.2 -11.5626
714 2 14.4 20.8 4.8 -9.32279
715 2 16 19.2 3.2 -9.53241
716 1 17.6 20.8 4.8 -11.4528
717 3 19.2 19.2 3.2 -10.9968
718 1 20.8 20.8 4.8 -11.6262
719 2 22.4 19.2 3.2 -9.56186
720 2 24 20.8 4.8 -9.52978
721 1 25.6 19.2 3.2 -11.4894
722 2 27.2 20.8 4.8 -9.58772
723 1 28.8 19.2 3.2 -11.7245
724 3 30.4 20.8 4.8 -10.9963
725 1 32 19.2 3.2 -11.5943
726 2 33.6 20.8 4.8 -9.45108
727 1 35.2 19.2 3.2 -11.4774
728 1 36.8 20.8 4.8 -11.4083
729 1 38.4 19.2 3.2 -11.409
730 1 40 20.8 4.8 -11.4093
731 1 41.6 19.2 3.2 -11.4277
732 1 43.2 20.8 4.8 -11.4103
733 1 44.8 19.2 3.2 -11.3714
734 1 46.4 20.8 4.8 -11.4515
735 1 48 19.2 3.2 -11.3153
736 1 49.6 20.8 4.8 -11.4395
737 1 0 22.4 3.2 -11.2785
738 1 1.6 24 4.8 -11.3156
739 1 3.2 22.4 3.2 -11.3333
740 1 4.8 24 4.8 -11.2265
741 1 6.4 22.4 3.2 -11.4352
742 2 8 24 4.8 -9.31102
743 1 9.6 22.4 3.2 -11.6279
744 2 11.2 24 4.8 -9.31089
745 1 12.8 22.4 3.2 -11.3908
746 1 14.4 24 4.8 -11.2306
747 1 16 22.4 3.2 -11.1883
748 1 17.6 24 4.8 -11.4352
749 2 19.2 22.4 3.2 -9.48865
750 1 20.8 24 4.8 -11.4909
751 1 22.4 22.4 3.2 -11.4217
752 2 24 24 4.8 -9.53714
753 1 25.6 22.4 3.2 -11.4013
754 1 27.2 24 4.8 -11.3136
755 1 28.8 22.4 3.2 -11.488
756 2 30.4 24 4.8 -9.57582
757 1 32 22.4 3.2 -11.4498
758 1 33.6 24 4.8 -11.4336
759 1 35.2 22.4 3.2 -11.4083
760 1 36.8 24 4.8 -11.5577
761 2 38.4 22.4 3.2 -9.45095
762 1 40 24 4.8 -11.6897
763 3 41.6 22.4 3.2 -10.9479
764 1 43.2 24 4.8 -11.7511
765 2 44.8 22.4 3.2 -9.54587
766 1 46.4 24 4.8 -11.7208
767 2 48 22.4 3.2 -9.43881
768 1 49.6 24 4.8 -11.4969
769 1 0 25.6 3.2 -11.152
771 1 3.2 25.6 3.2 -11.1458
773 1 6.4 25.6 3.2 -11.3327
775 1 9.6 25.6 3.2 -11.3349
777 1 12.8 25.6 3.2 -11.2862
779 2 16 25.6 3.2 -9.47373
781 2 19.2 25.6 3.2 -9.47676
783 1 22.4 25.6 3.2 -11.4741
785 1 25.6 25.6 3.2 -11.5242
787 2 28.8 25.6 3.2 -9.57384
789 2 32 25.6 3.2 -9.54012
791 3 35.2 25.6 3.2 -10.8599
793 2 38.4 25.6 3.2 -9.55359
795 3 41.6 25.6 3.2 -11.1263
797 3 44.8 25.6 3.2 -11.0835
799 2 48 25.6 3.2 -9.58181
770 1 1.6 27.2 4.8 -11.4324
801 2 0 28.8 3.2 -9.49515
772 1 4.8 27.2 4.8 -11.4047
803 1 3.2 28.8 3.2 -11.3924
774 1 8 27.2 4.8 -11.375
805 2 6.4 28.8 3.2 -9.45173
776 1 11.2 27.2 4.8 -11.3381
807 2 9.6 28.8 3.2 -9.47725
778 1 14.4 27.2 4.8 -11.4969
809 2 12.8 28.8 3.2 -9.51438
780 1 17.6 27.2 4.8 -11.6582
811 3 16 28.8 3.2 -11.0411
782 1 20.8 27.2 4.8 -11.4507
813 2 19.2 28.8 3.2 -9.43355
784 3 24 27.2 4.8 -10.9529
815 1 22.4 28.8 3.2 -11.4067
817 1 25.6 28.8 3.2 -11.6578
786 2 27.2 27.2 4.8 -9.59901
819 1 28.8 28.8 3.2 -11.4818
788 2 30.4 27.2 4.8 -9.59892
821 1 32 28.8 3.2 -11.3328
790 1 33.6 27.2 4.8 -11.3511
823 1 35.2 28.8 3.2 -11.3727
792 1 36.8 27.2 4.8 -11.3749
825 1 38.4 28.8 3.2 -11.3128
794 1 40 27.2 4.8 -11.5307
827 2 41.6 28.8 3.2 -9.48869
796 1 43.2 27.2 4.8 -11.7511
829 2 44.8 28.8 3.2 -9.51387
798 1 46.4 27.2 4.8 -11.7208
831 2 48 28.8 3.2 -9.61831
800 1 49.6 27.2 4.8 -11.5823
802 2 1.6 30.4 4.8 -9.61004
833 1 0 32 3.2 -11.4709
804 1 4.8 30.4 4.8 -11.5525
835 1 3.2 32 3.2 -11.3883
806 1 8 30.4 4.8 -11.6279
837 2 6.4 32 3.2 -9.39747
808 1 11.2 30.4 4.8 -11.5949
839 2 9.6 32 3.2 -9.54872
810 1 14.4 30.4 4.8 -11.6897
841 2 12.8 32 3.2 -9.6154
812 1 17.6 30.4 4.8 -11.7205
843 2 16 32 3.2 -9.54512
814 1 20.8 30.4 4.8 -11.4552
845 2 19.2 32 3.2 -9.64387
816 3 24 30.4 4.8 -10.9514
847 1 22.4 32 3.2 -11.5276
849 1 25.6 32 3.2 -11.662
818 2 27.2 30.4 4.8 -9.55032
851 1 28.8 32 3.2 -11.555
820 2 30.4 30.4 4.8 -9.47713
853 1 32 32 3.2 -11.5205
822 2 33.6 30.4 4.8 -9.3972
855 1 35.2 32 3.2 -11.6279
824 2 36.8 30.4 4.8 -9.43444
857 1 38.4 32 3.2 -11.5502
826 1 40 30.4 4.8 -11.4128
859 1 41.6 32 3.2 -11.3747
828 1 43.2 30.4 4.8 -11.5821
861 2 44.8 32 3.2 -9.43958
830 1 46.4 30.4 4.8 -11.6616
863 2 48 32 3.2 -9.53133
832 1 49.6 30.4 4.8 -11.5795
834 2 1.6 33.6 4.8 -9.49108
865 1 0 35.2 3.2 -11.5199
836 1 4.8 33.6 4.8 -11.4741
867 1 3.2 35.2 3.2 -11.4182
838 1 8 33.6 4.8 -11.5943
869 2 6.4 35.2 3.2 -9.48384
840 1 11.2 33.6 4.8 -11.6582
871 2 9.6 35.2 3.2 -9.58296
842 1 14.4 33.6 4.8 -11.5429
873 3 12.8 35.2 3.2 -10.9975
844 1 17.6 33.6 4.8 -11.3806
875 1 16 35.2 3.2 -11.1835
846 2 20.8 33.6 4.8 -9.53233
877 1 19.2 35.2 3.2 -11.3644
848 2 24 33.6 4.8 -9.6493
879 1 22.4 35.2 3.2 -11.6265
881 1 25.6 35.2 3.2 -11.662
850 3 27.2 33.6 4.8 -10.9958
883 1 28.8 35.2 3.2 -11.6606
852 2 30.4 33.6 4.8 -9.51451
885 1 32 35.2 3.2 -11.6582
854 2 33.6 33.6 4.8 -9.58343
887 1 35.2 35.2 3.2 -11.6606
856 3 36.8 33.6 4.8 -10.996
889 1 38.4 35.2 3.2 -11.6616
858 2 40 33.6 4.8 -9.56516
891 1 41.6 35.2 3.2 -11.4245
860 1 43.2 33.6 4.8 -11.424
893 1 44.8 35.2 3.2 -11.2488
862 1 46.4 33.6 4.8 -11.4285
895 1 48 35.2 3.2 -11.4195
864 2 49.6 33.6 4.8 -9.41773
866 2 1.6 36.8 4.8 -9.54988
897 1 0 38.4 3.2 -11.4331
868 2 4.8 36.8 4.8 -9.49025
899 1 3.2 38.4 3.2 -11.4629
870 1 8 36.8 4.8 -11.6675
901 2 6.4 38.4 3.2 -9.59917
872 1 11.2 36.8 4.8 -11.7208
903 2 9.6 38.4 3.2 -9.58272
874 1 14.4 36.8 4.8 -11.5355
905 2 12.8 38.4 3.2 -9.61528
876 1 17.6 36.8 4.8 -11.2181
907 2 16 38.4 3.2 -9.43354
878 2 20.8 36.8 4.8 -9.43406
909 1 19.2 38.4 3.2 -11.2439
880 3 24 36.8 4.8 -11.0408
911 1 22.4 38.4 3.2 -11.5488
913 1 25.6 38.4 3.2 -11.6573
882 2 27.2 36.8 4.8 -9.61563
915 1 28.8 38.4 3.2 -11.6582
884 2 30.4 36.8 4.8 -9.50894
917 1 32 38.4 3.2 -11.6897
886 2 33.6 36.8 4.8 -9.58308
919 1 35.2 38.4 3.2 -11.6279
888 2 36.8 36.8 4.8 -9.61563
921 1 38.4 38.4 3.2 -11.6279
890 3 40 36.8 4.8 -10.9924
923 1 41.6 38.4 3.2 -11.467
892 2 43.2 36.8 4.8 -9.45646
925 1 44.8 38.4 3.2 -11.4219
894 2 46.4 36.8 4.8 -9.39771
927 1 48 38.4 3.2 -11.4343
896 2 49.6 36.8 4.8 -9.58421
898 2 1.6 40 4.8 -9.45094
929 1 0 41.6 3.2 -11.3507
900 1 4.8 40 4.8 -11.448
931 2 3.2 41.6 3.2 -9.45127
902 1 8 40 4.8 -11.5502
933 2 6.4 41.6 3.2 -9.51464
904 1 11.2 40 4.8 -11.6582
935 2 9.6 41.6 3.2 -9.54835
906 1 14.4 40 4.8 -11.6606
937 2 12.8 41.6 3.2 -9.64625
908 1 17.6 40 4.8 -11.2926
939 3 16 41.6 3.2 -10.9006
910 1 20.8 40 4.8 -11.1918
941 1 19.2 41.6 3.2 -11.2206
912 3 24 40 4.8 -10.8502
943 1 22.4 41.6 3.2 -11.32
945 1 25.6 41.6 3.2 -11.428
914 2 27.2 40 4.8 -9.51463
947 1 28.8 41.6 3.2 -11.5242
916 2 30.4 40 4.8 -9.58343
949 1 32 41.6 3.2 -11.5508
918 2 33.6 40 4.8 -9.5486
951 1 35.2 41.6 3.2 -11.559
920 2 36.8 40 4.8 -9.58284
953 1 38.4 41.6 3.2 -11.559
922 2 40 40 4.8 -9.58355
955 1 41.6 41.6 3.2 -11.4787
924 2 43.2 40 4.8 -9.51463
957 1 44.8 41.6 3.2 -11.5545
926 2 46.4 40 4.8 -9.51476
959 1 48 41.6 3.2 -11.4515
928 2 49.6 40 4.8 -9.47676
930 1 1.6 43.2 4.8 -11.2848
961 1 0 44.8 3.2 -11.3511
932 1 4.8 43.2 4.8 -11.4218
963 2 3.2 44.8 3.2 -9.51711
934 1 8 43.2 4.8 -11.4706
965 3 6.4 44.8 3.2 -10.9012
936 1 11.2 43.2 4.8 -11.6272
967 2 9.6 44.8 3.2 -9.58761
938 1 14.4 43.2 4.8 -11.6612
969 3 12.8 44.8 3.2 -10.9486
940 1 17.6 43.2 4.8 -11.5738
971 2 16 44.8 3.2 -9.67863
942 2 20.8 43.2 4.8 -9.50898
973 2 19.2 44.8 3.2 -9.52008
944 1 24 43.2 4.8 -11.3716
975 3 22.4 44.8 3.2 -11.0408
977 2 25.6 44.8 3.2 -9.4736
946 1 27.2 43.2 4.8 -11.2132
979 2 28.8 44.8 3.2 -9.49322
948 2 30.4 43.2 4.8 -9.49096
981 1 32 44.8 3.2 -11.3033
950 2 33.6 43.2 4.8 -9.3972
983 1 35.2 44.8 3.2 -11.4027
952 2 36.8 43.2 4.8 -9.51476
985 1 38.4 44.8 3.2 -11.4778
954 2 40 43.2 4.8 -9.51413
987 1 41.6 44.8 3.2 -11.6119
956 3 43.2 43.2 4.8 -11.0848
989 1 44.8 44.8 3.2 -11.7205
958 3 46.4 43.2 4.8 -11.0411
991 1 48 44.8 3.2 -11.5821
960 2 49.6 43.2 4.8 -9.4736
962 1 1.6 46.4 4.8 -11.3696
993 1 0 48 3.2 -11.5403
964 2 4.8 46.4 4.8 -9.53539
995 2 3.2 48 3.2 -9.49716
966 1 8 46.4 4.8 -11.4131
997 1 6.4 48 3.2 -11.414
968 1 11.2 46.4 4.8 -11.4511
999 1 9.6 48 3.2 -11.3418
970 1 14.4 46.4 4.8 -11.4914
1001 1 12.8 48 3.2 -11.2975
972 1 17.6 46.4 4.8 -11.6038
1003 3 16 48 3.2 -10.7441
974 1 20.8 46.4 4.8 -11.6989
1005 2 19.2 48 3.2 -9.58377
976 1 24 46.4 4.8 -11.617
1007 2 22.4 48 3.2 -9.61563
1009 3 25.6 48 3.2 -11.0416
978 1 27.2 46.4 4.8 -11.5012
1011 2 28.8 48 3.2 -9.55105
980 1 30.4 46.4 4.8 -11.42
1013 2 32 48 3.2 -9.51524
982 1 33.6 46.4 4.8 -11.3729
1015 3 35.2 48 3.2 -10.8013
984 1 36.8 46.4 4.8 -11.3874
1017 1 38.4 48 3.2 -11.2718
986 2 40 46.4 4.8 -9.43368
1019 1 41.6 48 3.2 -11.4962
988 3 43.2 46.4 4.8 -11.0848
1021 1 44.8 48 3.2 -11.6578
990 2 46.4 46.4 4.8 -9.64875
1023 1 48 48 3.2 -11.6578
992 3 49.6 46.4 4.8 -10.9509
994 2 1.6 49.6 4.8 -9.53113
996 2 4.8 49.6 4.8 -9.5346
998 2 8 49.6 4.8 -9.40793
1000 2 11.2 49.6 4.8 -9.22614
1002 1 14.4 49.6 4.8 -11.2551
1004 1 17.6 49.6 4.8 -11.3841
1006 1 20.8 49.6 4.8 -11.5168
1008 1 24 49.6 4.8 -11.5001
1010 1 27.2 49.6 4.8 -11.5382
1012 1 30.4 49.6 4.8 -11.559
1014 1 33.6 49.6 4.8 -11.5583
1016 1 36.8 49.6 4.8 -11.2851
1018 1 40 49.6 4.8 -11.1797
1020 2 43.2 49.6 4.8 -9.60321
1022 2 46.4 49.6 4.8 -9.59904
1024 3 49.6 49.6 4.8 -10.9506
1025 1 0 0 6.4 -11.559
1026 2 1.6 1.6 8 -9.61575
1027 1 3.2 0 6.4 -11.5861
1028 3 4.8 1.6 8 -10.9965
1029 1 6.4 0 6.4 -11.5458
1030 3 8 1.6 8 -10.9943
1031 1 9.6 0 6.4 -11.4729
1032 2 11.2 1.6 8 -9.55032
1033 1 12.8 0 6.4 -11.4506
1034 2 14.4 1.6 8 -9.58377
1035 1 16 0 6.4 -11.3903
1036 3 17.6 1.6 8 -10.9968
1037 1 19.2 0 6.4 -11.4908
1038 3 20.8 1.6 8 -11.0443
1039 1 22.4 0 6.4 -11.3849
1040 2 24 1.6 8 -9.43945
1041 1 25.6 0 6.4 -11.2572
1042 2 27.2 1.6 8 -9.49675
1043 1 28.8 0 6.4 -11.3496
1044 1 30.4 1.6 8 -11.4709
1045 2 32 0 6.4 -9.47663
1046 1 33.6 1.6 8 -11.478
1047 2 35.2 0 6.4 -9.45566
1048 1 36.8 1.6 8 -11.5506
1049 1 38.4 0 6.4 -11.3281
1050 1 40 1.6 8 -11.5991
1051 2 41.6 0 6.4 -9.53271
1052 1 43.2 1.6 8 -11.5572
1053 2 44.8 0 6.4 -9.56285
1054 1 46.4 1.6 8 -11.3123
1055 1 48 0 6.4 -11.4503
1056 2 49.6 1.6 8 -9.47345
1057 1 0 3.2 6.4 -11.6279
1058 2 1.6 4.8 8 -9.58343
1059 1 3.2 3.2 6.4 -11.6582
1060 2 4.8 4.8 8 -9.50908
1061 1 6.4 3.2 6.4 -11.6229
1062 2 8 4.8 8 -9.61598
1063 1 9.6 3.2 6.4 -11.5061
1064 3 11.2 4.8 8 -10.9963
1065 1 12.8 3.2 6.4 -11.5514
1066 2 14.4 4.8 8 -9.55262
1067 1 16 3.2 6.4 -11.5061
1068 3 17.6 4.8 8 -11.0389
1069 1 19.2 3.2 6.4 -11.4837
1070 3 20.8 4.8 8 -11.1282
1071 1 22.4 3.2 6.4 -11.487
1072 2 24 4.8 8 -9.51438
1073 1 25.6 3.2 6.4 -11.3134
1074 2 27.2 4.8 8 -9.59513
1075 2 28.8 3.2 6.4 -9.49679
1076 2 30.4 4.8 8 -9.4115
1077 2 32 3.2 6.4 -9.53173
1078 1 33.6 4.8 8 -11.3533
1079 3 35.2 3.2 6.4 -10.8939
1080 1 36.8 4.8 8 -11.5879
1081 2 38.4 3.2 6.4 -9.63325
1082 1 40 4.8 8 -11.5173
1083 1 41.6 3.2 6.4 -11.4546
1084 1 43.2 4.8 8 -11.4465
1085 1 44.8 3.2 6.4 -11.3033
1086 1 46.4 4.8 8 -11.2498
1087 1 48 3.2 6.4 -11.3873
1088 3 49.6 4.8 8 -10.8529
1089 1 0 6.4 6.4 -11.6578
1090 2 1.6 8 8 -9.43354
1091 1 3.2 6.4 6.4 -11.5205
1092 1 4.8 8 8 -11.225
1093 1 6.4 6.4 6.4 -11.5514
1094 2 8 8 8 -9.43315
1095 1 9.6 6.4 6.4 -11.6919
1096 2 11.2 8 8 -9.58194
1097 1 12.8 6.4 6.4 -11.6919
1098 2 14.4 8 8 -9.61552
1099 1 16 6.4 6.4 -11.5892
1100 2 17.6 8 8 -9.61528
1101 1 19.2 6.4 6.4 -11.6187
1102 3 20.8 8 8 -11.0848