 # Bcc Mo oriented X=[100] Y=[010] Z=[001].
  
        8192  atoms
           4  atom types
 
      0.000000000000      51.200000000000  xlo xhi
      0.000000000000      51.200000000000  ylo yhi
      0.000000000000      51.200000000000  zlo zhi
 
 
 
Atoms # atomic

1 1 0.0 0.0 0.0
2 2 1.6 1.6 1.6
3 1 3.2 0.0 0.0
4 3 4.8 1.6 1.6
5 1 6.4 0.0 0.0
6 3 8.0 1.6 1.6
7 1 9.6 0.0 0.0
8 3 11.2 1.6 1.6
9 1 12.8 0.0 0.0
10 3 14.4 1.6 1.6
11 1 16.0 0.0 0.0
12 2 17.6 1.6 1.6
13 1 19.2 0.0 0.0
14 2 20.8 1.6 1.6
15 1 22.4 0.0 0.0
16 2 24.0 1.6 1.6
17 3 25.6 0.0 0.0
18 1 27.2 1.6 1.6
19 2 28.8 0.0 0.0
20 1 30.4 1.6 1.6
21 3 32.0 0.0 0.0
22 1 33.6 1.6 1.6
23 3 35.2 0.0 0.0
24 1 36.8 1.6 1.6
25 3 38.4 0.0 0.0
26 1 40.0 1.6 1.6
27 3 41.6 0.0 0.0
28 1 43.2 1.6 1.6
29 3 44.8 0.0 0.0
30 1 46.4 1.6 1.6
31 1 48.0 0.0 0.0
32 2 49.6 1.6 1.6
33 2 0.0 3.2 0.0
34 1 1.6 4.8 1.6
35 1 3.2 3.2 0.0
36 3 4.8 4.8 1.6
37 2 6.4 3.2 0.0
38 2 8.0 4.8 1.6
39 1 9.6 3.2 0.0
40 2 11.2 4.8 1.6
41 1 12.8 3.2 0.0
42 3 14.4 4.8 1.6
43 1 16.0 3.2 0.0
44 3 17.6 4.8 1.6
45 1 19.2 3.2 0.0
46 3 20.8 4.8 1.6
47 1 22.4 3.2 0.0
48 2 24.0 4.8 1.6
49 2 25.6 3.2 0.0
50 1 27.2 4.8 1.6
51 3 28.8 3.2 0.0
52 1 30.4 4.8 1.6
53 3 32.0 3.2 0.0
54 1 33.6 4.8 1.6
55 3 35.2 3.2 0.0
56 1 36.8 4.8 1.6
57 3 38.4 3.2 0.0
58 1 40.0 4.8 1.6
59 3 41.6 3.2 0.0
60 1 43.2 4.8 1.6
61 2 44.8 3.2 0.0
62 2 46.4 4.8 1.6
63 2 48.0 3.2 0.0
64 1 49.6 4.8 1.6
65 3 0.0 6.4 0.0
66 1 1.6 8.0 1.6
67 2 3.2 6.4 0.0
68 1 4.8 8.0 1.6
69 2 6.4 6.4 0.0
70 2 8.0 8.0 1.6
71 1 9.6 6.4 0.0
72 3 11.2 8.0 1.6
73 1 12.8 6.4 0.0
74 2 14.4 8.0 1.6
75 1 16.0 6.4 0.0
76 3 17.6 8.0 1.6
77 1 19.2 6.4 0.0
78 3 20.8 8.0 1.6
79 1 22.4 6.4 0.0
80 2 24.0 8.0 1.6
81 1 25.6 6.4 0.0
82 1 27.2 8.0 1.6
83 2 28.8 6.4 0.0
84 1 30.4 8.0 1.6
85 2 32.0 6.4 0.0
86 1 33.6 8.0 1.6
87 3 35.2 6.4 0.0
88 1 36.8 8.0 1.6
89 3 38.4 6.4 0.0
90 1 40.0 8.0 1.6
91 3 41.6 6.4 0.0
92 1 43.2 8.0 1.6
93 3 44.8 6.4 0.0
94 2 46.4 8.0 1.6
95 1 48.0 6.4 0.0
96 2 49.6 8.0 1.6
97 2 0.0 9.6 0.0
98 1 1.6 11.2 1.6
99 2 3.2 9.6 0.0
100 2 4.8 11.2 1.6
101 2 6.4 9.6 0.0
102 3 8.0 11.2 1.6
103 1 9.6 9.6 0.0
104 3 11.2 11.2 1.6
105 1 12.8 9.6 0.0
106 3 14.4 11.2 1.6
107 1 16.0 9.6 0.0
108 3 17.6 11.2 1.6
109 1 19.2 9.6 0.0
110 2 20.8 11.2 1.6
111 1 22.4 9.6 0.0
112 2 24.0 11.2 1.6
113 1 25.6 9.6 0.0
114 1 27.2 11.2 1.6
115 2 28.8 9.6 0.0
116 2 30.4 11.2 1.6
117 1 32.0 9.6 0.0
118 3 33.6 11.2 1.6
119 1 35.2 9.6 0.0
120 2 36.8 11.2 1.6
121 2 38.4 9.6 0.0
122 1 40.0 11.2 1.6
123 3 41.6 9.6 0.0
124 1 43.2 11.2 1.6
125 3 44.8 9.6 0.0
126 1 46.4 11.2 1.6
127 1 48.0 9.6 0.0
128 1 49.6 11.2 1.6
129 1 0.0 12.8 0.0
130 2 1.6 14.4 1.6
131 1 3.2 12.8 0.0
132 2 4.8 14.4 1.6
133 1 6.4 12.8 0.0
134 3 8.0 14.4 1.6
135 1 9.6 12.8 0.0
136 3 11.2 14.4 1.6
137 1 12.8 12.8 0.0
138 3 14.4 14.4 1.6
139 1 16.0 12.8 0.0
140 3 17.6 14.4 1.6
141 1 19.2 12.8 0.0
142 2 20.8 14.4 1.6
143 1 22.4 12.8 0.0
144 1 24.0 14.4 1.6
145 1 25.6 12.8 0.0
146 1 27.2 14.4 1.6
147 1 28.8 12.8 0.0
148 1 30.4 14.4 1.6
149 1 32.0 12.8 0.0
150 3 33.6 14.4 1.6
151 1 35.2 12.8 0.0
152 2 36.8 14.4 1.6
153 1 38.4 12.8 0.0
154 1 40.0 14.4 1.6
155 3 41.6 12.8 0.0
156 1 43.2 14.4 1.6
157 2 44.8 12.8 0.0
158 1 46.4 14.4 1.6
159 2 48.0 12.8 0.0
160 2 49.6 14.4 1.6
161 1 0.0 16.0 0.0
162 3 1.6 17.6 1.6
163 1 3.2 16.0 0.0
164 1 4.8 17.6 1.6
165 1 6.4 16.0 0.0
166 2 8.0 17.6 1.6
167 1 9.6 16.0 0.0
168 3 11.2 17.6 1.6
169 1 12.8 16.0 0.0
170 3 14.4 17.6 1.6
171 1 16.0 16.0 0.0
172 3 17.6 17.6 1.6
173 1 19.2 16.0 0.0
174 3 20.8 17.6 1.6
175 1 22.4 16.0 0.0
176 1 24.0 17.6 1.6
177 2 25.6 16.0 0.0
178 1 27.2 17.6 1.6
179 2 28.8 16.0 0.0
180 1 30.4 17.6 1.6
181 1 32.0 16.0 0.0
182 2 33.6 17.6 1.6
183 1 35.2 16.0 0.0
184 3 36.8 17.6 1.6
185 1 38.4 16.0 0.0
186 1 40.0 17.6 1.6
187 2 41.6 16.0 0.0
188 1 43.2 17.6 1.6
189 3 44.8 16.0 0.0
190 1 46.4 17.6 1.6
191 1 48.0 16.0 0.0
192 3 49.6 17.6 1.6
193 1 0.0 19.2 0.0
194 1 1.6 20.8 1.6
195 2 3.2 19.2 0.0
196 1 4.8 20.8 1.6
197 2 6.4 19.2 0.0
198 1 8.0 20.8 1.6
199 1 9.6 19.2 0.0
200 3 11.2 20.8 1.6
201 1 12.8 19.2 0.0
202 3 14.4 20.8 1.6
203 1 16.0 19.2 0.0
204 2 17.6 20.8 1.6
205 1 19.2 19.2 0.0
206 2 20.8 20.8 1.6
207 1 22.4 19.2 0.0
208 1 24.0 20.8 1.6
209 2 25.6 19.2 0.0
210 1 27.2 20.8 1.6
211 3 28.8 19.2 0.0
212 1 30.4 20.8 1.6
213 3 32.0 19.2 0.0
214 1 33.6 20.8 1.6
215 1 35.2 19.2 0.0
216 2 36.8 20.8 1.6
217 1 38.4 19.2 0.0
218 1 40.0 20.8 1.6
219 2 41.6 19.2 0.0
220 2 43.2 20.8 1.6
221 3 44.8 19.2 0.0
222 2 46.4 20.8 1.6
223 1 48.0 19.2 0.0
224 2 49.6 20.8 1.6
225 2 0.0 22.4 0.0
226 1 1.6 24.0 1.6
227 3 3.2 22.4 0.0
228 1 4.8 24.0 1.6
229 2 6.4 22.4 0.0
230 1 8.0 24.0 1.6
231 1 9.6 22.4 0.0
232 2 11.2 24.0 1.6
233 1 12.8 22.4 0.0
234 2 14.4 24.0 1.6
235 1 16.0 22.4 0.0
236 2 17.6 24.0 1.6
237 1 19.2 22.4 0.0
238 2 20.8 24.0 1.6
239 2 22.4 22.4 0.0
240 1 24.0 24.0 1.6
241 3 25.6 22.4 0.0
242 1 27.2 24.0 1.6
243 2 28.8 22.4 0.0
244 1 30.4 24.0 1.6
245 3 32.0 22.4 0.0
246 1 33.6 24.0 1.6
247 3 35.2 22.4 0.0
248 1 36.8 24.0 1.6
249 3 38.4 22.4 0.0
250 1 40.0 24.0 1.6
251 2 41.6 22.4 0.0
252 3 43.2 24.0 1.6
253 1 44.8 22.4 0.0
254 3 46.4 24.0 1.6
255 1 48.0 22.4 0.0
256 2 49.6 24.0 1.6
257 1 0.0 25.6 0.0
258 1 1.6 27.2 1.6
259 3 3.2 25.6 0.0
260 1 4.8 27.2 1.6
261 2 6.4 25.6 0.0
262 1 8.0 27.2 1.6
263 1 9.6 25.6 0.0
264 3 11.2 27.2 1.6
265 1 12.8 25.6 0.0
266 1 14.4 27.2 1.6
267 1 16.0 25.6 0.0
268 3 17.6 27.2 1.6
269 1 19.2 25.6 0.0
270 2 20.8 27.2 1.6
271 1 22.4 25.6 0.0
272 1 24.0 27.2 1.6
273 2 25.6 25.6 0.0
274 1 27.2 27.2 1.6
275 3 28.8 25.6 0.0
276 1 30.4 27.2 1.6
277 3 32.0 25.6 0.0
278 1 33.6 27.2 1.6
279 3 35.2 25.6 0.0
280 1 36.8 27.2 1.6
281 2 38.4 25.6 0.0
282 2 40.0 27.2 1.6
283 2 41.6 25.6 0.0
284 3 43.2 27.2 1.6
285 1 44.8 25.6 0.0
286 3 46.4 27.2 1.6
287 1 48.0 25.6 0.0
288 2 49.6 27.2 1.6
289 2 0.0 28.8 0.0
290 1 1.6 30.4 1.6
291 2 3.2 28.8 0.0
292 1 4.8 30.4 1.6
293 1 6.4 28.8 0.0
294 1 8.0 30.4 1.6
295 2 9.6 28.8 0.0
296 1 11.2 30.4 1.6
297 2 12.8 28.8 0.0
298 3 14.4 30.4 1.6
299 1 16.0 28.8 0.0
300 3 17.6 30.4 1.6
301 1 19.2 28.8 0.0
302 2 20.8 30.4 1.6
303 1 22.4 28.8 0.0
304 2 24.0 30.4 1.6
305 1 25.6 28.8 0.0
306 1 27.2 30.4 1.6
307 3 28.8 28.8 0.0
308 1 30.4 30.4 1.6
309 2 32.0 28.8 0.0
310 1 33.6 30.4 1.6
311 3 35.2 28.8 0.0
312 1 36.8 30.4 1.6
313 2 38.4 28.8 0.0
314 1 40.0 30.4 1.6
315 1 41.6 28.8 0.0
316 2 43.2 30.4 1.6
317 1 44.8 28.8 0.0
318 3 46.4 30.4 1.6
319 1 48.0 28.8 0.0
320 3 49.6 30.4 1.6
321 1 0.0 32.0 0.0
322 3 1.6 33.6 1.6
323 2 3.2 32.0 0.0
324 1 4.8 33.6 1.6
325 2 6.4 32.0 0.0
326 1 8.0 33.6 1.6
327 1 9.6 32.0 0.0
328 3 11.2 33.6 1.6
329 1 12.8 32.0 0.0
330 3 14.4 33.6 1.6
331 1 16.0 32.0 0.0
332 3 17.6 33.6 1.6
333 1 19.2 32.0 0.0
334 2 20.8 33.6 1.6
335 2 22.4 32.0 0.0
336 1 24.0 33.6 1.6
337 1 25.6 32.0 0.0
338 1 27.2 33.6 1.6
339 3 28.8 32.0 0.0
340 1 30.4 33.6 1.6
341 3 32.0 32.0 0.0
342 1 33.6 33.6 1.6
343 3 35.2 32.0 0.0
344 1 36.8 33.6 1.6
345 2 38.4 32.0 0.0
346 1 40.0 33.6 1.6
347 1 41.6 32.0 0.0
348 3 43.2 33.6 1.6
349 1 44.8 32.0 0.0
350 3 46.4 33.6 1.6
351 1 48.0 32.0 0.0
352 3 49.6 33.6 1.6
353 1 0.0 35.2 0.0
354 2 1.6 36.8 1.6
355 1 3.2 35.2 0.0
356 2 4.8 36.8 1.6
357 1 6.4 35.2 0.0
358 2 8.0 36.8 1.6
359 1 9.6 35.2 0.0
360 3 11.2 36.8 1.6
361 1 12.8 35.2 0.0
362 3 14.4 36.8 1.6
363 1 16.0 35.2 0.0
364 2 17.6 36.8 1.6
365 1 19.2 35.2 0.0
366 1 20.8 36.8 1.6
367 3 22.4 35.2 0.0
368 1 24.0 36.8 1.6
369 2 25.6 35.2 0.0
370 1 27.2 36.8 1.6
371 3 28.8 35.2 0.0
372 1 30.4 36.8 1.6
373 3 32.0 35.2 0.0
374 1 33.6 36.8 1.6
375 3 35.2 35.2 0.0
376 1 36.8 36.8 1.6
377 1 38.4 35.2 0.0
378 1 40.0 36.8 1.6
379 1 41.6 35.2 0.0
380 1 43.2 36.8 1.6
381 1 44.8 35.2 0.0
382 2 46.4 36.8 1.6
383 1 48.0 35.2 0.0
384 3 49.6 36.8 1.6
385 1 0.0 38.4 0.0
386 3 1.6 40.0 1.6
387 1 3.2 38.4 0.0
388 2 4.8 40.0 1.6
389 1 6.4 38.4 0.0
390 2 8.0 40.0 1.6
391 1 9.6 38.4 0.0
392 3 11.2 40.0 1.6
393 1 12.8 38.4 0.0
394 2 14.4 40.0 1.6
395 3 16.0 38.4 0.0
396 1 17.6 40.0 1.6
397 3 19.2 38.4 0.0
398 1 20.8 40.0 1.6
399 3 22.4 38.4 0.0
400 1 24.0 40.0 1.6
401 2 25.6 38.4 0.0
402 1 27.2 40.0 1.6
403 3 28.8 38.4 0.0
404 1 30.4 40.0 1.6
405 3 32.0 38.4 0.0
406 1 33.6 40.0 1.6
407 3 35.2 38.4 0.0
408 1 36.8 40.0 1.6
409 2 38.4 38.4 0.0
410 1 40.0 40.0 1.6
411 3 41.6 38.4 0.0
412 1 43.2 40.0 1.6
413 3 44.8 38.4 0.0
414 1 46.4 40.0 1.6
415 1 48.0 38.4 0.0
416 2 49.6 40.0 1.6
417 1 0.0 41.6 0.0
418 3 1.6 43.2 1.6
419 1 3.2 41.6 0.0
420 3 4.8 43.2 1.6
421 1 6.4 41.6 0.0
422 3 8.0 43.2 1.6
423 1 9.6 41.6 0.0
424 3 11.2 43.2 1.6
425 1 12.8 41.6 0.0
426 3 14.4 43.2 1.6
427 2 16.0 41.6 0.0
428 1 17.6 43.2 1.6
429 3 19.2 41.6 0.0
430 1 20.8 43.2 1.6
431 3 22.4 41.6 0.0
432 1 24.0 43.2 1.6
433 3 25.6 41.6 0.0
434 1 27.2 43.2 1.6
435 3 28.8 41.6 0.0
436 1 30.4 43.2 1.6
437 3 32.0 41.6 0.0
438 1 33.6 43.2 1.6
439 2 35.2 41.6 0.0
440 1 36.8 43.2 1.6
441 3 38.4 41.6 0.0
442 1 40.0 43.2 1.6
443 3 41.6 41.6 0.0
444 1 43.2 43.2 1.6
445 3 44.8 41.6 0.0
446 1 46.4 43.2 1.6
447 1 48.0 41.6 0.0
448 3 49.6 43.2 1.6
449 1 0.0 44.8 0.0
450 3 1.6 46.4 1.6
451 1 3.2 44.8 0.0
452 3 4.8 46.4 1.6
453 1 6.4 44.8 0.0
454 3 8.0 46.4 1.6
455 1 9.6 44.8 0.0
456 3 11.2 46.4 1.6
457 1 12.8 44.8 0.0
458 3 14.4 46.4 1.6
459 1 16.0 44.8 0.0
460 3 17.6 46.4 1.6
461 1 19.2 44.8 0.0
462 3 20.8 46.4 1.6
463 3 22.4 44.8 0.0
464 1 24.0 46.4 1.6
465 3 25.6 44.8 0.0
466 1 27.2 46.4 1.6
467 3 28.8 44.8 0.0
468 1 30.4 46.4 1.6
469 3 32.0 44.8 0.0
470 1 33.6 46.4 1.6
471 2 35.2 44.8 0.0
472 1 36.8 46.4 1.6
473 3 38.4 44.8 0.0
474 1 40.0 46.4 1.6
475 2 41.6 44.8 0.0
476 2 43.2 46.4 1.6
477 1 44.8 44.8 0.0
478 1 46.4 46.4 1.6
479 1 48.0 44.8 0.0
480 2 49.6 46.4 1.6
481 1 0.0 48.0 0.0
482 3 1.6 49.6 1.6
483 1 3.2 48.0 0.0
484 3 4.8 49.6 1.6
485 1 6.4 48.0 0.0
486 3 8.0 49.6 1.6
487 1 9.6 48.0 0.0
488 3 11.2 49.6 1.6
489 1 12.8 48.0 0.0
490 3 14.4 49.6 1.6
491 1 16.0 48.0 0.0
492 3 17.6 49.6 1.6
493 1 19.2 48.0 0.0
494 2 20.8 49.6 1.6
495 1 22.4 48.0 0.0
496 2 24.0 49.6 1.6
497 2 25.6 48.0 0.0
498 1 27.2 49.6 1.6
499 2 28.8 48.0 0.0
500 1 30.4 49.6 1.6
501 3 32.0 48.0 0.0
502 1 33.6 49.6 1.6
503 3 35.2 48.0 0.0
504 1 36.8 49.6 1.6
505 3 38.4 48.0 0.0
506 1 40.0 49.6 1.6
507 1 41.6 48.0 0.0
508 1 43.2 49.6 1.6
509 1 44.8 48.0 0.0
510 1 46.4 49.6 1.6
511 1 48.0 48.0 0.0
512 3 49.6 49.6 1.6
513 2 0.0 0.0 3.2
514 2 1.6 1.6 4.8
515 1 3.2 0.0 3.2
516 3 4.8 1.6 4.8
517 1 6.4 0.0 3.2
518 3 8.0 1.6 4.8
519 1 9.6 0.0 3.2
520 3 11.2 1.6 4.8
521 1 12.8 0.0 3.2
522 3 14.4 1.6 4.8
523 1 16.0 0.0 3.2
524 3 17.6 1.6 4.8
525 1 19.2 0.0 3.2
526 2 20.8 1.6 4.8
527 1 22.4 0.0 3.2
528 1 24.0 1.6 4.8
529 3 25.6 0.0 3.2
530 1 27.2 1.6 4.8
531 3 28.8 0.0 3.2
532 1 30.4 1.6 4.8
533 3 32.0 0.0 3.2
534 1 33.6 1.6 4.8
535 3 35.2 0.0 3.2
536 1 36.8 1.6 4.8
537 3 38.4 0.0 3.2
538 1 40.0 1.6 4.8
539 3 41.6 0.0 3.2
540 1 43.2 1.6 4.8
541 3 44.8 0.0 3.2
542 1 46.4 1.6 4.8
543 3 48.0 0.0 3.2
544 1 49.6 1.6 4.8
545 2 0.0 3.2 3.2
546 2 1.6 4.8 4.8
547 1 3.2 3.2 3.2
548 3 4.8 4.8 4.8
549 1 6.4 3.2 3.2
550 3 8.0 4.8 4.8
551 1 9.6 3.2 3.2
552 3 11.2 4.8 4.8
553 1 12.8 3.2 3.2
554 3 14.4 4.8 4.8
555 1 16.0 3.2 3.2
556 3 17.6 4.8 4.8
557 1 19.2 3.2 3.2
558 2 20.8 4.8 4.8
559 1 22.4 3.2 3.2
560 1 24.0 4.8 4.8
561 3 25.6 3.2 3.2
562 1 27.2 4.8 4.8
563 3 28.8 3.2 3.2
564 1 30.4 4.8 4.8
565 3 32.0 3.2 3.2
566 1 33.6 4.8 4.8
567 3 35.2 3.2 3.2
568 1 36.8 4.8 4.8
569 3 38.4 3.2 3.2
570 1 40.0 4.8 4.8
571 2 41.6 3.2 3.2
572 1 43.2 4.8 4.8
573 2 44.8 3.2 3.2
574 2 46.4 4.8 4.8
575 2 48.0 3.2 3.2
576 2 49.6 4.8 4.8
577 3 0.0 6.4 3.2
578 2 1.6 8.0 4.8
579 1 3.2 6.4 3.2
580 2 4.8 8.0 4.8
581 1 6.4 6.4 3.2
582 3 8.0 8.0 4.8
583 1 9.6 6.4 3.2
584 3 11.2 8.0 4.8
585 1 12.8 6.4 3.2
586 3 14.4 8.0 4.8
587 1 16.0 6.4 3.2
588 3 17.6 8.0 4.8
589 1 19.2 6.4 3.2
590 2 20.8 8.0 4.8
591 1 22.4 6.4 3.2
592 1 24.0 8.0 4.8
593 2 25.6 6.4 3.2
594 1 27.2 8.0 4.8
595 2 28.8 6.4 3.2
596 2 30.4 8.0 4.8
597 1 32.0 6.4 3.2
598 1 33.6 8.0 4.8
599 3 35.2 6.4 3.2
600 1 36.8 8.0 4.8
601 3 38.4 6.4 3.2
602 1 40.0 8.0 4.8
603 3 41.6 6.4 3.2
604 1 43.2 8.0 4.8
605 2 44.8 6.4 3.2
606 1 46.4 8.0 4.8
607 1 48.0 6.4 3.2
608 3 49.6 8.0 4.8
609 3 0.0 9.6 3.2
610 1 1.6 11.2 4.8
611 2 3.2 9.6 3.2
612 2 4.8 11.2 4.8
613 1 6.4 9.6 3.2
614 3 8.0 11.2 4.8
615 1 9.6 9.6 3.2
616 3 11.2 11.2 4.8
617 1 12.8 9.6 3.2
618 3 14.4 11.2 4.8
619 1 16.0 9.6 3.2
620 3 17.6 11.2 4.8
621 1 19.2 9.6 3.2
622 2 20.8 11.2 4.8
623 1 22.4 9.6 3.2
624 1 24.0 11.2 4.8
625 3 25.6 9.6 3.2
626 1 27.2 11.2 4.8
627 2 28.8 9.6 3.2
628 3 30.4 11.2 4.8
629 1 32.0 9.6 3.2
630 3 33.6 11.2 4.8
631 1 35.2 9.6 3.2
632 1 36.8 11.2 4.8
633 3 38.4 9.6 3.2
634 1 40.0 11.2 4.8
635 3 41.6 9.6 3.2
636 1 43.2 11.2 4.8
637 2 44.8 9.6 3.2
638 1 46.4 11.2 4.8
639 1 48.0 9.6 3.2
640 2 49.6 11.2 4.8
641 1 0.0 12.8 3.2
642 1 1.6 14.4 4.8
643 1 3.2 12.8 3.2
644 1 4.8 14.4 4.8
645 1 6.4 12.8 3.2
646 2 8.0 14.4 4.8
647 1 9.6 12.8 3.2
648 3 11.2 14.4 4.8
649 1 12.8 12.8 3.2
650 3 14.4 14.4 4.8
651 1 16.0 12.8 3.2
652 3 17.6 14.4 4.8
653 1 19.2 12.8 3.2
654 1 20.8 14.4 4.8
655 2 22.4 12.8 3.2
656 1 24.0 14.4 4.8
657 3 25.6 12.8 3.2
658 1 27.2 14.4 4.8
659 1 28.8 12.8 3.2
660 2 30.4 14.4 4.8
661 1 32.0 12.8 3.2
662 3 33.6 14.4 4.8
663 1 35.2 12.8 3.2
664 2 36.8 14.4 4.8
665 3 38.4 12.8 3.2
666 1 40.0 14.4 4.8
667 3 41.6 12.8 3.2
668 1 43.2 14.4 4.8
669 2 44.8 12.8 3.2
670 1 46.4 14.4 4.8
671 3 48.0 12.8 3.2
672 1 49.6 14.4 4.8
673 3 0.0 16.0 3.2
674 1 1.6 17.6 4.8
675 2 3.2 16.0 3.2
676 1 4.8 17.6 4.8
677 2 6.4 16.0 3.2
678 1 8.0 17.6 4.8
679 1 9.6 16.0 3.2
680 3 11.2 17.6 4.8
681 1 12.8 16.0 3.2
682 3 14.4 17.6 4.8
683 1 16.0 16.0 3.2
684 3 17.6 17.6 4.8
685 1 19.2 16.0 3.2
686 2 20.8 17.6 4.8
687 3 22.4 16.0 3.2
688 1 24.0 17.6 4.8
689 3 25.6 16.0 3.2
690 1 27.2 17.6 4.8
691 3 28.8 16.0 3.2
692 1 30.4 17.6 4.8
693 1 32.0 16.0 3.2
694 2 33.6 17.6 4.8
695 1 35.2 16.0 3.2
696 1 36.8 17.6 4.8
697 3 38.4 16.0 3.2
698 1 40.0 17.6 4.8
699 3 41.6 16.0 3.2
700 1 43.2 17.6 4.8
701 1 44.8 16.0 3.2
702 1 46.4 17.6 4.8
703 2 48.0 16.0 3.2
704 1 49.6 17.6 4.8
705 3 0.0 19.2 3.2
706 1 1.6 20.8 4.8
707 3 3.2 19.2 3.2
708 1 4.8 20.8 4.8
709 3 6.4 19.2 3.2
710 1 8.0 20.8 4.8
711 1 9.6 19.2 3.2
712 3 11.2 20.8 4.8
713 1 12.8 19.2 3.2
714 3 14.4 20.8 4.8
715 1 16.0 19.2 3.2
716 3 17.6 20.8 4.8
717 1 19.2 19.2 3.2
718 3 20.8 20.8 4.8
719 2 22.4 19.2 3.2
720 1 24.0 20.8 4.8
721 3 25.6 19.2 3.2
722 1 27.2 20.8 4.8
723 3 28.8 19.2 3.2
724 1 30.4 20.8 4.8
725 2 32.0 19.2 3.2
726 1 33.6 20.8 4.8
727 1 35.2 19.2 3.2
728 1 36.8 20.8 4.8
729 3 38.4 19.2 3.2
730 1 40.0 20.8 4.8
731 3 41.6 19.2 3.2
732 1 43.2 20.8 4.8
733 2 44.8 19.2 3.2
734 3 46.4 20.8 4.8
735 2 48.0 19.2 3.2
736 1 49.6 20.8 4.8
737 3 0.0 22.4 3.2
738 1 1.6 24.0 4.8
739 3 3.2 22.4 3.2
740 1 4.8 24.0 4.8
741 3 6.4 22.4 3.2
742 1 8.0 24.0 4.8
743 2 9.6 22.4 3.2
744 3 11.2 24.0 4.8
745 1 12.8 22.4 3.2
746 3 14.4 24.0 4.8
747 1 16.0 22.4 3.2
748 3 17.6 24.0 4.8
749 1 19.2 22.4 3.2
750 3 20.8 24.0 4.8
751 1 22.4 22.4 3.2
752 2 24.0 24.0 4.8
753 2 25.6 22.4 3.2
754 1 27.2 24.0 4.8
755 2 28.8 22.4 3.2
756 1 30.4 24.0 4.8
757 3 32.0 22.4 3.2
758 1 33.6 24.0 4.8
759 3 35.2 22.4 3.2
760 1 36.8 24.0 4.8
761 3 38.4 22.4 3.2
762 1 40.0 24.0 4.8
763 1 41.6 22.4 3.2
764 2 43.2 24.0 4.8
765 1 44.8 22.4 3.2
766 3 46.4 24.0 4.8
767 1 48.0 22.4 3.2
768 1 49.6 24.0 4.8
769 3 0.0 25.6 3.2
770 1 1.6 27.2 4.8
771 3 3.2 25.6 3.2
772 1 4.8 27.2 4.8
773 2 6.4 25.6 3.2
774 2 8.0 27.2 4.8
775 1 9.6 25.6 3.2
776 2 11.2 27.2 4.8
777 1 12.8 25.6 3.2
778 2 14.4 27.2 4.8
779 1 16.0 25.6 3.2
780 3 17.6 27.2 4.8
781 1 19.2 25.6 3.2
782 3 20.8 27.2 4.8
783 1 22.4 25.6 3.2
784 2 24.0 27.2 4.8
785 1 25.6 25.6 3.2
786 1 27.2 27.2 4.8
787 3 28.8 25.6 3.2
788 1 30.4 27.2 4.8
789 3 32.0 25.6 3.2
790 1 33.6 27.2 4.8
791 3 35.2 25.6 3.2
792 1 36.8 27.2 4.8
793 2 38.4 25.6 3.2
794 2 40.0 27.2 4.8
795 1 41.6 25.6 3.2
796 2 43.2 27.2 4.8
797 1 44.8 25.6 3.2
798 3 46.4 27.2 4.8
799 1 48.0 25.6 3.2
800 2 49.6 27.2 4.8
801 1 0.0 28.8 3.2
802 1 1.6 30.4 4.8
803 3 3.2 28.8 3.2
804 1 4.8 30.4 4.8
805 2 6.4 28.8 3.2
806 2 8.0 30.4 4.8
807 2 9.6 28.8 3.2
808 2 11.2 30.4 4.8
809 2 12.8 28.8 3.2
810 2 14.4 30.4 4.8
811 1 16.0 28.8 3.2
812 3 17.6 30.4 4.8
813 1 19.2 28.8 3.2
814 3 20.8 30.4 4.8
815 1 22.4 28.8 3.2
816 2 24.0 30.4 4.8
817 2 25.6 28.8 3.2
818 2 27.2 30.4 4.8
819 3 28.8 28.8 3.2
820 1 30.4 30.4 4.8
821 3 32.0 28.8 3.2
822 1 33.6 30.4 4.8
823 3 35.2 28.8 3.2
824 1 36.8 30.4 4.8
825 3 38.4 28.8 3.2
826 1 40.0 30.4 4.8
827 1 41.6 28.8 3.2
828 2 43.2 30.4 4.8
829 1 44.8 28.8 3.2
830 3 46.4 30.4 4.8
831 1 48.0 28.8 3.2
832 2 49.6 30.4 4.8
833 1 0.0 32.0 3.2
834 2 1.6 33.6 4.8
835 2 3.2 32.0 3.2
836 1 4.8 33.6 4.8
837 2 6.4 32.0 3.2
838 1 8.0 33.6 4.8
839 2 9.6 32.0 3.2
840 1 11.2 33.6 4.8
841 1 12.8 32.0 3.2
842 3 14.4 33.6 4.8
843 1 16.0 32.0 3.2
844 3 17.6 33.6 4.8
845 1 19.2 32.0 3.2
846 2 20.8 33.6 4.8
847 2 22.4 32.0 3.2
848 1 24.0 33.6 4.8
849 1 25.6 32.0 3.2
850 2 27.2 33.6 4.8
851 3 28.8 32.0 3.2
852 1 30.4 33.6 4.8
853 3 32.0 32.0 3.2
854 1 33.6 33.6 4.8
855 3 35.2 32.0 3.2
856 1 36.8 33.6 4.8
857 2 38.4 32.0 3.2
858 1 40.0 33.6 4.8
859 1 41.6 32.0 3.2
860 2 43.2 33.6 4.8
861 1 44.8 32.0 3.2
862 3 46.4 33.6 4.8
863 1 48.0 32.0 3.2
864 3 49.6 33.6 4.8
865 1 0.0 35.2 3.2
866 2 1.6 36.8 4.8
867 2 3.2 35.2 3.2
868 1 4.8 36.8 4.8
869 2 6.4 35.2 3.2
870 1 8.0 36.8 4.8
871 1 9.6 35.2 3.2
872 3 11.2 36.8 4.8
873 1 12.8 35.2 3.2
874 3 14.4 36.8 4.8
875 1 16.0 35.2 3.2
876 2 17.6 36.8 4.8
877 1 19.2 35.2 3.2
878 1 20.8 36.8 4.8
879 2 22.4 35.2 3.2
880 2 24.0 36.8 4.8
881 2 25.6 35.2 3.2
882 2 27.2 36.8 4.8
883 3 28.8 35.2 3.2
884 2 30.4 36.8 4.8
885 3 32.0 35.2 3.2
886 1 33.6 36.8 4.8
887 3 35.2 35.2 3.2
888 1 36.8 36.8 4.8
889 3 38.4 35.2 3.2
890 1 40.0 36.8 4.8
891 3 41.6 35.2 3.2
892 2 43.2 36.8 4.8
893 1 44.8 35.2 3.2
894 2 46.4 36.8 4.8
895 1 48.0 35.2 3.2
896 2 49.6 36.8 4.8
897 1 0.0 38.4 3.2
898 2 1.6 40.0 4.8
899 1 3.2 38.4 3.2
900 1 4.8 40.0 4.8
901 2 6.4 38.4 3.2
902 1 8.0 40.0 4.8
903 1 9.6 38.4 3.2
904 3 11.2 40.0 4.8
905 1 12.8 38.4 3.2
906 1 14.4 40.0 4.8
907 3 16.0 38.4 3.2
908 2 17.6 40.0 4.8
909 2 19.2 38.4 3.2
910 1 20.8 40.0 4.8
911 2 22.4 38.4 3.2
912 2 24.0 40.0 4.8
913 1 25.6 38.4 3.2
914 1 27.2 40.0 4.8
915 3 28.8 38.4 3.2
916 1 30.4 40.0 4.8
917 3 32.0 38.4 3.2
918 1 33.6 40.0 4.8
919 3 35.2 38.4 3.2
920 1 36.8 40.0 4.8
921 3 38.4 38.4 3.2
922 1 40.0 40.0 4.8
923 3 41.6 38.4 3.2
924 1 43.2 40.0 4.8
925 2 44.8 38.4 3.2
926 1 46.4 40.0 4.8
927 3 48.0 38.4 3.2
928 1 49.6 40.0 4.8
929 1 0.0 41.6 3.2
930 2 1.6 43.2 4.8
931 1 3.2 41.6 3.2
932 2 4.8 43.2 4.8
933 1 6.4 41.6 3.2
934 2 8.0 43.2 4.8
935 1 9.6 41.6 3.2
936 3 11.2 43.2 4.8
937 1 12.8 41.6 3.2
938 2 14.4 43.2 4.8
939 2 16.0 41.6 3.2
940 2 17.6 43.2 4.8
941 1 19.2 41.6 3.2
942 2 20.8 43.2 4.8
943 3 22.4 41.6 3.2
944 2 24.0 43.2 4.8
945 3 25.6 41.6 3.2
946 1 27.2 43.2 4.8
947 3 28.8 41.6 3.2
948 1 30.4 43.2 4.8
949 3 32.0 41.6 3.2
950 1 33.6 43.2 4.8
951 3 35.2 41.6 3.2
952 1 36.8 43.2 4.8
953 3 38.4 41.6 3.2
954 1 40.0 43.2 4.8
955 2 41.6 41.6 3.2
956 1 43.2 43.2 4.8
957 3 44.8 41.6 3.2
958 1 46.4 43.2 4.8
959 3 48.0 41.6 3.2
960 1 49.6 43.2 4.8
961 1 0.0 44.8 3.2
962 2 1.6 46.4 4.8
963 1 3.2 44.8 3.2
964 3 4.8 46.4 4.8
965 1 6.4 44.8 3.2
966 3 8.0 46.4 4.8
967 1 9.6 44.8 3.2
968 3 11.2 46.4 4.8
969 1 12.8 44.8 3.2
970 3 14.4 46.4 4.8
971 1 16.0 44.8 3.2
972 2 17.6 46.4 4.8
973 1 19.2 44.8 3.2
974 3 20.8 46.4 4.8
975 2 22.4 44.8 3.2
976 3 24.0 46.4 4.8
977 2 25.6 44.8 3.2
978 1 27.2 46.4 4.8
979 3 28.8 44.8 3.2
980 1 30.4 46.4 4.8
981 3 32.0 44.8 3.2
982 1 33.6 46.4 4.8
983 3 35.2 44.8 3.2
984 1 36.8 46.4 4.8
985 3 38.4 44.8 3.2
986 1 40.0 46.4 4.8
987 2 41.6 44.8 3.2
988 1 43.2 46.4 4.8
989 3 44.8 44.8 3.2
990 1 46.4 46.4 4.8
991 3 48.0 44.8 3.2
992 1 49.6 46.4 4.8
993 1 0.0 48.0 3.2
994 2 1.6 49.6 4.8
995 1 3.2 48.0 3.2
996 2 4.8 49.6 4.8
997 1 6.4 48.0 3.2
998 3 8.0 49.6 4.8
999 1 9.6 48.0 3.2
1000 3 11.2 49.6 4.8
1001 1 12.8 48.0 3.2
1002 3 14.4 49.6 4.8
1003 1 16.0 48.0 3.2
1004 3 17.6 49.6 4.8
1005 1 19.2 48.0 3.2
1006 3 20.8 49.6 4.8
1007 1 22.4 48.0 3.2
1008 1 24.0 49.6 4.8
1009 3 25.6 48.0 3.2
1010 1 27.2 49.6 4.8
1011 3 28.8 48.0 3.2
1012 1 30.4 49.6 4.8
1013 3 32.0 48.0 3.2
1014 1 33.6 49.6 4.8
1015 3 35.2 48.0 3.2
1016 1 36.8 49.6 4.8
1017 3 38.4 48.0 3.2
1018 1 40.0 49.6 4.8
1019 3 41.6 48.0 3.2
1020 1 43.2 49.6 4.8
1021 3 44.8 48.0 3.2
1022 1 46.4 49.6 4.8
1023 3 48.0 48.0 3.2
1024 1 49.6 49.6 4.8
1025 1 0.0 0.0 6.4
1026 1 1.6 1.6 8.0
1027 2 3.2 0.0 6.4
1028 1 4.8 1.6 8.0
1029 1 6.4 0.0 6.4
1030 3 8.0 1.6 8.0
1031 1 9.6 0.0 6.4
1032 3 11.2 1.6 8.0
1033 1 12.8 0.0 6.4
1034 3 14.4 1.6 8.0
1035 1 16.0 0.0 6.4
1036 3 17.6 1.6 8.0
1037 1 19.2 0.0 6.4
1038 3 20.8 1.6 8.0
1039 1 22.4 0.0 6.4
1040 2 24.0 1.6 8.0
1041 2 25.6 0.0 6.4
1042 2 27.2 1.6 8.0
1043 2 28.8 0.0 6.4
1044 1 30.4 1.6 8.0
1045 3 32.0 0.0 6.4
1046 1 33.6 1.6 8.0
1047 3 35.2 0.0 6.4
1048 1 36.8 1.6 8.0
1049 3 38.4 0.0 6.4
1050 2 40.0 1.6 8.0
1051 3 41.6 0.0 6.4
1052 1 43.2 1.6 8.0
1053 3 44.8 0.0 6.4
1054 1 46.4 1.6 8.0
1055 2 48.0 0.0 6.4
1056 1 49.6 1.6 8.0
1057 1 0.0 3.2 6.4
1058 3 1.6 4.8 8.0
1059 1 3.2 3.2 6.4
1060 2 4.8 4.8 8.0
1061 1 6.4 3.2 6.4
1062 3 8.0 4.8 8.0
1063 1 9.6 3.2 6.4
1064 3 11.2 4.8 8.0
1065 1 12.8 3.2 6.4
1066 3 14.4 4.8 8.0
1067 1 16.0 3.2 6.4
1068 2 17.6 4.8 8.0
1069 1 19.2 3.2 6.4
1070 3 20.8 4.8 8.0
1071 1 22.4 3.2 6.4
1072 1 24.0 4.8 8.0
1073 2 25.6 3.2 6.4
1074 1 27.2 4.8 8.0
1075 3 28.8 3.2 6.4
1076 1 30.4 4.8 8.0
1077 3 32.0 3.2 6.4
1078 3 33.6 4.8 8.0
1079 3 35.2 3.2 6.4
1080 2 36.8 4.8 8.0
1081 3 38.4 3.2 6.4
1082 2 40.0 4.8 8.0
1083 2 41.6 3.2 6.4
1084 1 43.2 4.8 8.0
1085 2 44.8 3.2 6.4
1086 1 46.4 4.8 8.0
1087 2 48.0 3.2 6.4
1088 2 49.6 4.8 8.0
1089 1 0.0 6.4 6.4
1090 1 1.6 8.0 8.0
1091 1 3.2 6.4 6.4
1092 1 4.8 8.0 8.0
1093 1 6.4 6.4 6.4
1094 3 8.0 8.0 8.0
1095 1 9.6 6.4 6.4
1096 3 11.2 8.0 8.0
1097 1 12.8 6.4 6.4
1098 3 14.4 8.0 8.0
1099 1 16.0 6.4 6.4
1100 3 17.6 8.0 8.0
1101 1 19.2 6.4 6.4
1102 1 20.8 8.0 8.0
1103 3 22.4 6.4 6.4
1104 1 24.0 8.0 8.0
1105 3 25.6 6.4 6.4
1106 2 27.2 8.0 8.0
1107 2 28.8 6.4 6.4
1108 2 30.4 8.0 8.0
1109 1 32.0 6.4 6.4
1110 2 33.6 8.0 8.0
1111 2 35.2 6.4 6.4
1112 2 36.8 8.0 8.0
1113 1 38.4 6.4 6.4
1114 1 40.0 8.0 8.0
1115 2 41.6 6.4 6.4
1116 1 43.2 8.0 8.0
1117 2 44.8 6.4 6.4
1118 2 46.4 8.0 8.0
1119 1 48.0 6.4 6.4
1120 2 49.6 8.0 8.0
1121 2 0.0 9.6 6.4
1122 1 1.6 11.2 8.0
1123 2 3.2 9.6 6.4
1124 2 4.8 11.2 8.0
1125 1 6.4 9.6 6.4
1126 3 8.0 11.2 8.0
1127 1 9.6 9.6 6.4
1128 3 11.2 11.2 8.0
1129 1 12.8 9.6 6.4
1130 3 14.4 11.2 8.0
1131 1 16.0 9.6 6.4
1132 2 17.6 11.2 8.0
1133 1 19.2 9.6 6.4
1134 1 20.8 11.2 8.0
1135 3 22.4 9.6 6.4
1136 1 24.0 11.2 8.0
1137 3 25.6 9.6 6.4
1138 1 27.2 11.2 8.0
1139 3 28.8 9.6 6.4
1140 1 30.4 11.2 8.0
1141 1 32.0 9.6 6.4
1142 1 33.6 11.2 8.0
1143 1 35.2 9.6 6.4
1144 1 36.8 11.2 8.0
1145 3 38.4 9.6 6.4
1146 1 40.0 11.2 8.0
1147 3 41.6 9.6 6.4
1148 1 43.2 11.2 8.0
1149 3 44.8 9.6 6.4
1150 1 46.4 11.2 8.0
1151 1 48.0 9.6 6.4
1152 2 49.6 11.2 8.0
1153 1 0.0 12.8 6.4
1154 1 1.6 14.4 8.0
1155 2 3.2 12.8 6.4
1156 1 4.8 14.4 8.0
1157 1 6.4 12.8 6.4
1158 3 8.0 14.4 8.0
1159 1 9.6 12.8 6.4
1160 3 11.2 14.4 8.0
1161 1 12.8 12.8 6.4
1162 3 14.4 14.4 8.0
1163 1 16.0 12.8 6.4
1164 3 17.6 14.4 8.0
1165 1 19.2 12.8 6.4
1166 1 20.8 14.4 8.0
1167 2 22.4 12.8 6.4
1168 1 24.0 14.4 8.0
1169 3 25.6 12.8 6.4
1170 1 27.2 14.4 8.0
1171 2 28.8 12.8 6.4
1172 1 30.4 14.4 8.0
1173 2 32.0 12.8 6.4
1174 1 33.6 14.4 8.0
1175 1 35.2 12.8 6.4
1176 1 36.8 14.4 8.0
1177 2 38.4 12.8 6.4
1178 1 40.0 14.4 8.0
1179 3 41.6 12.8 6.4
1180 1 43.2 14.4 8.0
1181 3 44.8 12.8 6.4
1182 1 46.4 14.4 8.0
1183 2 48.0 12.8 6.4
1184 1 49.6 14.4 8.0
1185 3 0.0 16.0 6.4
1186 1 1.6 17.6 8.0
1187 3 3.2 16.0 6.4
1188 1 4.8 17.6 8.0
1189 2 6.4 16.0 6.4
1190 1 8.0 17.6 8.0
1191 1 9.6 16.0 6.4
1192 3 11.2 17.6 8.0
1193 1 12.8 16.0 6.4
1194 3 14.4 17.6 8.0
1195 1 16.0 16.0 6.4
1196 3 17.6 17.6 8.0
1197 1 19.2 16.0 6.4
1198 2 20.8 17.6 8.0
1199 2 22.4 16.0 6.4
1200 1 24.0 17.6 8.0
1201 3 25.6 16.0 6.4
1202 1 27.2 17.6 8.0
1203 3 28.8 16.0 6.4
1204 1 30.4 17.6 8.0
1205 2 32.0 16.0 6.4
1206 1 33.6 17.6 8.0
1207 1 35.2 16.0 6.4
1208 1 36.8 17.6 8.0
1209 3 38.4 16.0 6.4
1210 1 40.0 17.6 8.0
1211 3 41.6 16.0 6.4
1212 1 43.2 17.6 8.0
1213 2 44.8 16.0 6.4
1214 1 46.4 17.6 8.0
1215 3 48.0 16.0 6.4
1216 1 49.6 17.6 8.0
1217 3 0.0 19.2 6.4
1218 1 1.6 20.8 8.0
1219 3 3.2 19.2 6.4
1220 1 4.8 20.8 8.0
1221 3 6.4 19.2 6.4
1222 1 8.0 20.8 8.0
1223 1 9.6 19.2 6.4
1224 3 11.2 20.8 8.0
1225 1 12.8 19.2 6.4
1226 3 14.4 20.8 8.0
1227 1 16.0 19.2 6.4
1228 3 17.6 20.8 8.0
1229 1 19.2 19.2 6.4
1230 3 20.8 20.8 8.0
1231 2 22.4 19.2 6.4
1232 1 24.0 20.8 8.0
1233 2 25.6 19.2 6.4
1234 1 27.2 20.8 8.0
1235 3 28.8 19.2 6.4
1236 1 30.4 20.8 8.0
1237 3 32.0 19.2 6.4
1238 1 33.6 20.8 8.0
1239 2 35.2 19.2 6.4
1240 1 36.8 20.8 8.0
1241 3 38.4 19.2 6.4
1242 1 40.0 20.8 8.0
1243 2 41.6 19.2 6.4
1244 2 43.2 20.8 8.0
1245 1 44.8 19.2 6.4
1246 1 46.4 20.8 8.0
1247 2 48.0 19.2 6.4
1248 1 49.6 20.8 8.0
1249 3 0.0 22.4 6.4
1250 1 1.6 24.0 8.0
1251 2 3.2 22.4 6.4
1252 2 4.8 24.0 8.0
1253 2 6.4 22.4 6.4
1254 2 8.0 24.0 8.0
1255 1 9.6 22.4 6.4
1256 3 11.2 24.0 8.0
1257 1 12.8 22.4 6.4
1258 3 14.4 24.0 8.0
1259 1 16.0 22.4 6.4
1260 3 17.6 24.0 8.0
1261 1 19.2 22.4 6.4
1262 3 20.8 24.0 8.0
1263 1 22.4 22.4 6.4
1264 3 24.0 24.0 8.0
1265 2 25.6 22.4 6.4
1266 3 27.2 24.0 8.0
1267 2 28.8 22.4 6.4
1268 2 30.4 24.0 8.0
1269 3 32.0 22.4 6.4
1270 1 33.6 24.0 8.0
1271 3 35.2 22.4 6.4
1272 1 36.8 24.0 8.0
1273 2 38.4 22.4 6.4
1274 1 40.0 24.0 8.0
1275 1 41.6 22.4 6.4
1276 1 43.2 24.0 8.0
1277 1 44.8 22.4 6.4
1278 1 46.4 24.0 8.0
1279 2 48.0 22.4 6.4
1280 1 49.6 24.0 8.0
1281 3 0.0 25.6 6.4
1282 1 1.6 27.2 8.0
1283 3 3.2 25.6 6.4
1284 3 4.8 27.2 8.0
1285 1 6.4 25.6 6.4
1286 3 8.0 27.2 8.0
1287 1 9.6 25.6 6.4
1288 3 11.2 27.2 8.0
1289 1 12.8 25.6 6.4
1290 3 14.4 27.2 8.0
1291 1 16.0 25.6 6.4
1292 3 17.6 27.2 8.0
1293 1 19.2 25.6 6.4
1294 3 20.8 27.2 8.0
1295 1 22.4 25.6 6.4
1296 3 24.0 27.2 8.0
1297 1 25.6 25.6 6.4
1298 3 27.2 27.2 8.0
1299 2 28.8 25.6 6.4
1300 2 30.4 27.2 8.0
1301 1 32.0 25.6 6.4
1302 1 33.6 27.2 8.0
1303 3 35.2 25.6 6.4
1304 1 36.8 27.2 8.0
1305 3 38.4 25.6 6.4
1306 1 40.0 27.2 8.0
1307 1 41.6 25.6 6.4
1308 1 43.2 27.2 8.0
1309 1 44.8 25.6 6.4
1310 1 46.4 27.2 8.0
1311 1 48.0 25.6 6.4
1312 1 49.6 27.2 8.0
1313 2 0.0 28.8 6.4
1314 2 1.6 30.4 8.0
1315 3 3.2 28.8 6.4
1316 1 4.8 30.4 8.0
1317 1 6.4 28.8 6.4
1318 2 8.0 30.4 8.0
1319 1 9.6 28.8 6.4
1320 3 11.2 30.4 8.0
1321 1 12.8 28.8 6.4
1322 3 14.4 30.4 8.0
1323 1 16.0 28.8 6.4
1324 3 17.6 30.4 8.0
1325 1 19.2 28.8 6.4
1326 3 20.8 30.4 8.0
1327 1 22.4 28.8 6.4
1328 3 24.0 30.4 8.0
1329 1 25.6 28.8 6.4
1330 3 27.2 30.4 8.0
1331 1 28.8 28.8 6.4
1332 2 30.4 30.4 8.0
1333 3 32.0 28.8 6.4
1334 1 33.6 30.4 8.0
1335 3 35.2 28.8 6.4
1336 1 36.8 30.4 8.0
1337 3 38.4 28.8 6.4
1338 1 40.0 30.4 8.0
1339 1 41.6 28.8 6.4
1340 2 43.2 30.4 8.0
1341 1 44.8 28.8 6.4
1342 3 46.4 30.4 8.0
1343 1 48.0 28.8 6.4
1344 2 49.6 30.4 8.0
1345 1 0.0 32.0 6.4
1346 2 1.6 33.6 8.0
1347 1 3.2 32.0 6.4
1348 1 4.8 33.6 8.0
1349 2 6.4 32.0 6.4
1350 2 8.0 33.6 8.0
1351 1 9.6 32.0 6.4
1352 3 11.2 33.6 8.0
1353 1 12.8 32.0 6.4
1354 3 14.4 33.6 8.0
1355 1 16.0 32.0 6.4
1356 3 17.6 33.6 8.0
1357 1 19.2 32.0 6.4
1358 3 20.8 33.6 8.0
1359 1 22.4 32.0 6.4
1360 3 24.0 33.6 8.0
1361 1 25.6 32.0 6.4
1362 3 27.2 33.6 8.0
1363 1 28.8 32.0 6.4
1364 2 30.4 33.6 8.0
1365 2 32.0 32.0 6.4
1366 1 33.6 33.6 8.0
1367 3 35.2 32.0 6.4
1368 1 36.8 33.6 8.0
1369 3 38.4 32.0 6.4
1370 1 40.0 33.6 8.0
1371 1 41.6 32.0 6.4
1372 3 43.2 33.6 8.0
1373 1 44.8 32.0 6.4
1374 3 46.4 33.6 8.0
1375 1 48.0 32.0 6.4
1376 3 49.6 33.6 8.0
1377 1 0.0 35.2 6.4
1378 1 1.6 36.8 8.0
1379 3 3.2 35.2 6.4
1380 1 4.8 36.8 8.0
1381 3 6.4 35.2 6.4
1382 1 8.0 36.8 8.0
1383 3 9.6 35.2 6.4
1384 3 11.2 36.8 8.0
1385 1 12.8 35.2 6.4
1386 3 14.4 36.8 8.0
1387 1 16.0 35.2 6.4
1388 3 17.6 36.8 8.0
1389 1 19.2 35.2 6.4
1390 3 20.8 36.8 8.0
1391 1 22.4 35.2 6.4
1392 3 24.0 36.8 8.0
1393 1 25.6 35.2 6.4
1394 2 27.2 36.8 8.0
1395 1 28.8 35.2 6.4
1396 1 30.4 36.8 8.0
1397 2 32.0 35.2 6.4
1398 1 33.6 36.8 8.0
1399 3 35.2 35.2 6.4
1400 1 36.8 36.8 8.0
1401 3 38.4 35.2 6.4
1402 1 40.0 36.8 8.0
1403 3 41.6 35.2 6.4
1404 2 43.2 36.8 8.0
1405 1 44.8 35.2 6.4
1406 1 46.4 36.8 8.0
1407 1 48.0 35.2 6.4
1408 2 49.6 36.8 8.0
1409 1 0.0 38.4 6.4
1410 1 1.6 40.0 8.0
1411 1 3.2 38.4 6.4
1412 1 4.8 40.0 8.0
1413 2 6.4 38.4 6.4
1414 1 8.0 40.0 8.0
1415 2 9.6 38.4 6.4
1416 2 11.2 40.0 8.0
1417 1 12.8 38.4 6.4
1418 2 14.4 40.0 8.0
1419 1 16.0 38.4 6.4
1420 3 17.6 40.0 8.0
1421 1 19.2 38.4 6.4
1422 3 20.8 40.0 8.0
1423 1 22.4 38.4 6.4
1424 3 24.0 40.0 8.0
1425 1 25.6 38.4 6.4
1426 1 27.2 40.0 8.0
1427 1 28.8 38.4 6.4
1428 1 30.4 40.0 8.0
1429 2 32.0 38.4 6.4
1430 1 33.6 40.0 8.0
1431 2 35.2 38.4 6.4
1432 1 36.8 40.0 8.0
1433 3 38.4 38.4 6.4
1434 1 40.0 40.0 8.0
1435 2 41.6 38.4 6.4
1436 1 43.2 40.0 8.0
1437 1 44.8 38.4 6.4
1438 1 46.4 40.0 8.0
1439 2 48.0 38.4 6.4
1440 1 49.6 40.0 8.0
1441 3 0.0 41.6 6.4
1442 1 1.6 43.2 8.0
1443 3 3.2 41.6 6.4
1444 1 4.8 43.2 8.0
1445 3 6.4 41.6 6.4
1446 1 8.0 43.2 8.0
1447 2 9.6 41.6 6.4
1448 2 11.2 43.2 8.0
1449 2 12.8 41.6 6.4
1450 1 14.4 43.2 8.0
1451 2 16.0 41.6 6.4
1452 2 17.6 43.2 8.0
1453 1 19.2 41.6 6.4
1454 3 20.8 43.2 8.0
1455 1 22.4 41.6 6.4
1456 2 24.0 43.2 8.0
1457 2 25.6 41.6 6.4
1458 2 27.2 43.2 8.0
1459 3 28.8 41.6 6.4
1460 1 30.4 43.2 8.0
1461 3 32.0 41.6 6.4
1462 1 33.6 43.2 8.0
1463 3 35.2 41.6 6.4
1464 1 36.8 43.2 8.0
1465 3 38.4 41.6 6.4
1466 1 40.0 43.2 8.0
1467 3 41.6 41.6 6.4
1468 1 43.2 43.2 8.0
1469 2 44.8 41.6 6.4
1470 1 46.4 43.2 8.0
1471 2 48.0 41.6 6.4
1472 1 49.6 43.2 8.0
1473 2 0.0 44.8 6.4
1474 1 1.6 46.4 8.0
1475 2 3.2 44.8 6.4
1476 1 4.8 46.4 8.0
1477 3 6.4 44.8 6.4
1478 1 8.0 46.4 8.0
1479 1 9.6 44.8 6.4
1480 3 11.2 46.4 8.0
1481 1 12.8 44.8 6.4
1482 2 14.4 46.4 8.0
1483 1 16.0 44.8 6.4
1484 3 17.6 46.4 8.0
1485 1 19.2 44.8 6.4
1486 3 20.8 46.4 8.0
1487 1 22.4 44.8 6.4
1488 3 24.0 46.4 8.0
1489 1 25.6 44.8 6.4
1490 1 27.2 46.4 8.0
1491 3 28.8 44.8 6.4
1492 1 30.4 46.4 8.0
1493 3 32.0 44.8 6.4
1494 1 33.6 46.4 8.0
1495 3 35.2 44.8 6.4
1496 1 36.8 46.4 8.0
1497 1 38.4 44.8 6.4
1498 1 40.0 46.4 8.0
1499 2 41.6 44.8 6.4
1500 1 43.2 46.4 8.0