ITEM: TIMESTEP
0
ITEM: NUMBER OF ATOMS
8192
ITEM: BOX BOUNDS pp pp pp
0.0000000000000000e+00 5.1200000000000003e+01
0.0000000000000000e+00 5.1200000000000003e+01
0.0000000000000000e+00 5.1200000000000003e+01
ITEM: ATOMS id type x y z c_eng
1 1 0 0 0 -11.6679
2 1 1.6 1.6 1.6 -11.4766
3 1 3.2 0 0 -11.6801
4 3 4.8 1.6 1.6 -11.0819
5 1 6.4 0 0 -11.8124
6 3 8 1.6 1.6 -11.2426
7 1 9.6 0 0 -11.8417
8 3 11.2 1.6 1.6 -11.2417
9 1 12.8 0 0 -11.8417
10 3 14.4 1.6 1.6 -11.2414
11 1 16 0 0 -11.8417
12 3 17.6 1.6 1.6 -11.242
13 1 19.2 0 0 -11.7808
14 3 20.8 1.6 1.6 -11.1268
15 1 22.4 0 0 -11.6301
16 2 24 1.6 1.6 -9.68089
17 3 25.6 0 0 -11.1967
18 1 27.2 1.6 1.6 -11.8421
19 3 28.8 0 0 -11.2042
20 1 30.4 1.6 1.6 -11.8124
21 3 32 0 0 -11.2036
22 1 33.6 1.6 1.6 -11.8124
23 3 35.2 0 0 -11.2417
24 1 36.8 1.6 1.6 -11.8417
25 3 38.4 0 0 -11.2423
26 1 40 1.6 1.6 -11.8417
27 3 41.6 0 0 -11.1241
28 1 43.2 1.6 1.6 -11.8417
29 3 44.8 0 0 -10.9449
30 1 46.4 1.6 1.6 -11.6813
31 1 48 0 0 -11.5004
32 1 49.6 1.6 1.6 -11.5987
33 2 0 3.2 0 -9.60418
34 1 1.6 4.8 1.6 -11.5247
35 1 3.2 3.2 0 -11.5743
36 2 4.8 4.8 1.6 -9.66486
37 1 6.4 3.2 0 -11.7264
38 3 8 4.8 1.6 -11.124
39 1 9.6 3.2 0 -11.7093
40 3 11.2 4.8 1.6 -11.2045
41 1 12.8 3.2 0 -11.8124
42 3 14.4 4.8 1.6 -11.2417
43 1 16 3.2 0 -11.8417
44 3 17.6 4.8 1.6 -11.2414
45 1 19.2 3.2 0 -11.8122
46 3 20.8 4.8 1.6 -11.1256
47 1 22.4 3.2 0 -11.5949
48 1 24 4.8 1.6 -11.5343
49 3 25.6 3.2 0 -11.1188
50 1 27.2 4.8 1.6 -11.7806
51 3 28.8 3.2 0 -11.2423
52 1 30.4 4.8 1.6 -11.812
53 3 32 3.2 0 -11.2036
54 1 33.6 4.8 1.6 -11.8421
55 3 35.2 3.2 0 -11.242
56 1 36.8 4.8 1.6 -11.8122
57 3 38.4 3.2 0 -11.2036
58 1 40 4.8 1.6 -11.8124
59 3 41.6 3.2 0 -11.2036
60 1 43.2 4.8 1.6 -11.8122
61 3 44.8 3.2 0 -11.2438
62 1 46.4 4.8 1.6 -11.6856
63 3 48 3.2 0 -11.081
64 1 49.6 4.8 1.6 -11.6505
65 3 0 6.4 0 -10.9965
66 1 1.6 8 1.6 -11.6451
67 2 3.2 6.4 0 -9.63665
68 1 4.8 8 1.6 -11.5536
69 2 6.4 6.4 0 -9.67526
70 2 8 8 1.6 -9.69322
71 1 9.6 6.4 0 -11.6918
72 3 11.2 8 1.6 -11.2039
73 1 12.8 6.4 0 -11.8124
74 3 14.4 8 1.6 -11.2417
75 1 16 6.4 0 -11.8417
76 3 17.6 8 1.6 -11.242
77 1 19.2 6.4 0 -11.8417
78 3 20.8 8 1.6 -11.1663
79 1 22.4 6.4 0 -11.6193
80 2 24 8 1.6 -9.64137
81 2 25.6 6.4 0 -9.63725
82 1 27.2 8 1.6 -11.6628
83 3 28.8 6.4 0 -11.1265
84 1 30.4 8 1.6 -11.671
85 2 32 6.4 0 -9.72228
86 2 33.6 8 1.6 -9.67736
87 3 35.2 6.4 0 -11.1223
88 1 36.8 8 1.6 -11.6365
89 2 38.4 6.4 0 -9.70717
90 1 40 8 1.6 -11.7508
91 3 41.6 6.4 0 -11.2042
92 1 43.2 8 1.6 -11.8421
93 3 44.8 6.4 0 -11.2392
94 2 46.4 8 1.6 -9.71949
95 2 48 6.4 0 -9.62991
96 1 49.6 8 1.6 -11.6479
97 2 0 9.6 0 -9.69291
98 1 1.6 11.2 1.6 -11.7466
99 3 3.2 9.6 0 -11.1223
100 2 4.8 11.2 1.6 -9.68073
101 1 6.4 9.6 0 -11.6009
102 3 8 11.2 1.6 -11.0843
103 1 9.6 9.6 0 -11.7503
104 3 11.2 11.2 1.6 -11.2426
105 1 12.8 9.6 0 -11.8417
106 3 14.4 11.2 1.6 -11.2036
107 1 16 9.6 0 -11.8124
108 3 17.6 11.2 1.6 -11.2045
109 1 19.2 9.6 0 -11.8124
110 3 20.8 11.2 1.6 -11.2031
111 1 22.4 9.6 0 -11.7494
112 2 24 11.2 1.6 -9.67349
113 1 25.6 9.6 0 -11.6284
114 1 27.2 11.2 1.6 -11.4708
115 2 28.8 9.6 0 -9.60955
116 2 30.4 11.2 1.6 -9.53431
117 1 32 9.6 0 -11.5724
118 3 33.6 11.2 1.6 -11.0419
119 1 35.2 9.6 0 -11.578
120 2 36.8 11.2 1.6 -9.77544
121 2 38.4 9.6 0 -9.66405
122 1 40 11.2 1.6 -11.7563
123 3 41.6 9.6 0 -11.1651
124 1 43.2 11.2 1.6 -11.8122
125 3 44.8 9.6 0 -11.2019
126 1 46.4 11.2 1.6 -11.7163
127 1 48 9.6 0 -11.4903
128 1 49.6 11.2 1.6 -11.6627
129 2 0 12.8 0 -9.7807
130 1 1.6 14.4 1.6 -11.7517
131 3 3.2 12.8 0 -11.1944
132 1 4.8 14.4 1.6 -11.5654
133 1 6.4 12.8 0 -11.53
134 2 8 14.4 1.6 -9.62921
135 1 9.6 12.8 0 -11.7508
136 3 11.2 14.4 1.6 -11.2051
137 1 12.8 12.8 0 -11.8417
138 3 14.4 14.4 1.6 -11.242
139 1 16 12.8 0 -11.8124
140 3 17.6 14.4 1.6 -11.1642
141 1 19.2 12.8 0 -11.7828
142 2 20.8 14.4 1.6 -9.75899
143 1 22.4 12.8 0 -11.7196
144 1 24 14.4 1.6 -11.5054
145 1 25.6 12.8 0 -11.4826
146 1 27.2 14.4 1.6 -11.3658
147 1 28.8 12.8 0 -11.4547
148 1 30.4 14.4 1.6 -11.3465
149 1 32 12.8 0 -11.615
150 2 33.6 14.4 1.6 -9.61476
151 1 35.2 12.8 0 -11.7308
152 3 36.8 14.4 1.6 -11.1006
153 2 38.4 12.8 0 -9.74976
154 1 40 14.4 1.6 -11.7101
155 2 41.6 12.8 0 -9.67735
156 1 43.2 14.4 1.6 -11.7532
157 3 44.8 12.8 0 -11.1265
158 1 46.4 14.4 1.6 -11.6573
159 2 48 12.8 0 -9.60091
160 1 49.6 14.4 1.6 -11.6991
161 2 0 16 0 -9.7687
162 1 1.6 17.6 1.6 -11.8141
163 3 3.2 16 0 -11.1596
164 1 4.8 17.6 1.6 -11.7194
165 1 6.4 16 0 -11.5011
166 2 8 17.6 1.6 -9.67189
167 1 9.6 16 0 -11.7504
168 3 11.2 17.6 1.6 -11.0816
169 1 12.8 16 0 -11.8417
170 3 14.4 17.6 1.6 -11.2423
171 1 16 16 0 -11.8417
172 3 17.6 17.6 1.6 -11.2426
173 1 19.2 16 0 -11.8122
174 3 20.8 17.6 1.6 -11.1569
175 1 22.4 16 0 -11.6495
176 1 24 17.6 1.6 -11.588
177 1 25.6 16 0 -11.5613
178 1 27.2 17.6 1.6 -11.7104
179 2 28.8 16 0 -9.56756
180 1 30.4 17.6 1.6 -11.483
181 1 32 16 0 -11.4842
182 2 33.6 17.6 1.6 -9.60383
183 1 35.2 16 0 -11.6903
184 2 36.8 17.6 1.6 -9.63695
185 1 38.4 16 0 -11.5451
186 1 40 17.6 1.6 -11.6179
187 3 41.6 16 0 -10.9969
188 1 43.2 17.6 1.6 -11.6889
189 2 44.8 16 0 -9.64636
190 1 46.4 17.6 1.6 -11.612
191 2 48 16 0 -9.6691
192 2 49.6 17.6 1.6 -9.72193
193 2 0 19.2 0 -9.72591
194 1 1.6 20.8 1.6 -11.7873
195 3 3.2 19.2 0 -11.1268
196 1 4.8 20.8 1.6 -11.812
197 2 6.4 19.2 0 -9.70239
198 1 8 20.8 1.6 -11.6418
199 1 9.6 19.2 0 -11.7188
200 3 11.2 20.8 1.6 -11.2037
201 1 12.8 19.2 0 -11.8417
202 3 14.4 20.8 1.6 -11.2414
203 1 16 19.2 0 -11.8417
204 3 17.6 20.8 1.6 -11.2039
205 1 19.2 19.2 0 -11.7806
206 2 20.8 20.8 1.6 -9.73433
207 1 22.4 19.2 0 -11.6799
208 1 24 20.8 1.6 -11.6002
209 2 25.6 19.2 0 -9.72938
210 1 27.2 20.8 1.6 -11.7572
211 3 28.8 19.2 0 -11.0714
212 1 30.4 20.8 1.6 -11.6843
213 1 32 19.2 0 -11.4445
214 1 33.6 20.8 1.6 -11.5882
215 1 35.2 19.2 0 -11.4225
216 1 36.8 20.8 1.6 -11.5838
217 1 38.4 19.2 0 -11.3097
218 1 40 20.8 1.6 -11.6138
219 2 41.6 19.2 0 -9.62874
220 1 43.2 20.8 1.6 -11.6418
221 2 44.8 19.2 0 -9.60078
222 2 46.4 20.8 1.6 -9.64022
223 1 48 19.2 0 -11.6142
224 2 49.6 20.8 1.6 -9.80624
225 2 0 22.4 0 -9.6996
226 1 1.6 24 1.6 -11.7293
227 3 3.2 22.4 0 -11.2065
228 1 4.8 24 1.6 -11.7508
229 3 6.4 22.4 0 -11.0819
230 1 8 24 1.6 -11.6368
231 1 9.6 22.4 0 -11.6647
232 3 11.2 24 1.6 -11.2413
233 1 12.8 22.4 0 -11.8413
234 3 14.4 24 1.6 -11.2423
235 1 16 22.4 0 -11.8417
236 3 17.6 24 1.6 -11.1642
237 1 19.2 22.4 0 -11.7884
238 2 20.8 24 1.6 -9.66128
239 2 22.4 22.4 0 -9.70762
240 1 24 24 1.6 -11.5549
241 3 25.6 22.4 0 -11.1772
242 1 27.2 24 1.6 -11.7551
243 2 28.8 22.4 0 -9.72272
244 1 30.4 24 1.6 -11.8122
245 3 32 22.4 0 -11.0387
246 1 33.6 24 1.6 -11.8124
247 2 35.2 22.4 0 -9.61477
248 1 36.8 24 1.6 -11.7208
249 2 38.4 22.4 0 -9.43301
250 1 40 24 1.6 -11.6186
251 2 41.6 22.4 0 -9.69225
252 3 43.2 24 1.6 -11.151
253 1 44.8 22.4 0 -11.7572
254 3 46.4 24 1.6 -11.1263
255 1 48 22.4 0 -11.6933
256 2 49.6 24 1.6 -9.72804
257 2 0 25.6 0 -9.73231
259 3 3.2 25.6 0 -11.0835
261 2 6.4 25.6 0 -9.6293
263 2 9.6 25.6 0 -9.65843
265 1 12.8 25.6 0 -11.7814
267 1 16 25.6 0 -11.8124
269 1 19.2 25.6 0 -11.7508
271 1 22.4 25.6 0 -11.6183
273 2 25.6 25.6 0 -9.7761
275 3 28.8 25.6 0 -11.2666
277 3 32 25.6 0 -11.2042
279 3 35.2 25.6 0 -11.1651
281 2 38.4 25.6 0 -9.61609
283 2 41.6 25.6 0 -9.63772
285 1 44.8 25.6 0 -11.8421
287 1 48 25.6 0 -11.693
258 1 1.6 27.2 1.6 -11.7002
289 2 0 28.8 0 -9.69483
260 1 4.8 27.2 1.6 -11.6308
291 2 3.2 28.8 0 -9.56443
262 2 8 27.2 1.6 -9.68015
293 1 6.4 28.8 0 -11.502
264 3 11.2 27.2 1.6 -11.2354
295 2 9.6 28.8 0 -9.68664
266 3 14.4 27.2 1.6 -11.1645
297 1 12.8 28.8 0 -11.7814
268 2 17.6 27.2 1.6 -9.70694
299 1 16 28.8 0 -11.8124
270 2 20.8 27.2 1.6 -9.58626
301 1 19.2 28.8 0 -11.7809
272 1 24 27.2 1.6 -11.4608
303 1 22.4 28.8 0 -11.6238
305 2 25.6 28.8 0 -9.72211
274 1 27.2 27.2 1.6 -11.7491
307 3 28.8 28.8 0 -11.2645
276 1 30.4 27.2 1.6 -11.8122
309 2 32 28.8 0 -9.73522
278 1 33.6 27.2 1.6 -11.8124
311 3 35.2 28.8 0 -11.1257
280 1 36.8 27.2 1.6 -11.7187
313 2 38.4 28.8 0 -9.50959
282 1 40 27.2 1.6 -11.4162
315 1 41.6 28.8 0 -11.4899
284 2 43.2 27.2 1.6 -9.72298
317 1 44.8 28.8 0 -11.8122
286 3 46.4 27.2 1.6 -11.1664
319 1 48 28.8 0 -11.759
288 2 49.6 27.2 1.6 -9.81309
290 1 1.6 30.4 1.6 -11.53
321 1 0 32 0 -11.619
292 1 4.8 30.4 1.6 -11.448
323 1 3.2 32 0 -11.534
294 1 8 30.4 1.6 -11.5339
325 1 6.4 32 0 -11.4065
296 3 11.2 30.4 1.6 -11.278
327 1 9.6 32 0 -11.7024
298 3 14.4 30.4 1.6 -11.2426
329 1 12.8 32 0 -11.8411
300 3 17.6 30.4 1.6 -11.1242
331 1 16 32 0 -11.8124
302 3 20.8 30.4 1.6 -11.1235
333 1 19.2 32 0 -11.7836
304 1 24 30.4 1.6 -11.4628
335 2 22.4 32 0 -9.73844
337 2 25.6 32 0 -9.67076
306 1 27.2 30.4 1.6 -11.6737
339 3 28.8 32 0 -11.2412
308 1 30.4 30.4 1.6 -11.8122
341 3 32 32 0 -11.2048
310 1 33.6 30.4 1.6 -11.8124
343 3 35.2 32 0 -11.1651
312 1 36.8 30.4 1.6 -11.718
345 2 38.4 32 0 -9.51601
314 1 40 30.4 1.6 -11.4238
347 1 41.6 32 0 -11.4611
316 3 43.2 30.4 1.6 -11.0398
349 1 44.8 32 0 -11.7808
318 3 46.4 30.4 1.6 -11.1651
351 1 48 32 0 -11.7808
320 2 49.6 30.4 1.6 -9.69892
322 3 1.6 33.6 1.6 -11.0421
353 1 0 35.2 0 -11.8417
324 1 4.8 33.6 1.6 -11.4311
355 1 3.2 35.2 0 -11.7081
326 1 8 33.6 1.6 -11.397
357 1 6.4 35.2 0 -11.5861
328 3 11.2 33.6 1.6 -11.0839
359 1 9.6 35.2 0 -11.6135
330 3 14.4 33.6 1.6 -11.2048
361 1 12.8 35.2 0 -11.7808
332 2 17.6 33.6 1.6 -9.67747
363 1 16 35.2 0 -11.757
334 2 20.8 33.6 1.6 -9.66927
365 1 19.2 35.2 0 -11.6005
336 1 24 33.6 1.6 -11.5127
367 2 22.4 35.2 0 -9.67119
369 2 25.6 35.2 0 -9.63431
338 1 27.2 33.6 1.6 -11.662
371 3 28.8 35.2 0 -11.0419
340 1 30.4 33.6 1.6 -11.8122
373 3 32 35.2 0 -11.2071
342 1 33.6 33.6 1.6 -11.8415
375 3 35.2 35.2 0 -11.0314
344 1 36.8 33.6 1.6 -11.7839
377 2 38.4 35.2 0 -9.62663
346 1 40 33.6 1.6 -11.5219
379 2 41.6 35.2 0 -9.56986
348 2 43.2 33.6 1.6 -9.67031
381 1 44.8 35.2 0 -11.6664
350 3 46.4 33.6 1.6 -11.2057
383 1 48 35.2 0 -11.8124
352 3 49.6 33.6 1.6 -11.2051
354 3 1.6 36.8 1.6 -11.2063
385 1 0 38.4 0 -11.7808
356 2 4.8 36.8 1.6 -9.63564
387 1 3.2 38.4 0 -11.7808
358 2 8 36.8 1.6 -9.63272
389 1 6.4 38.4 0 -11.7568
360 3 11.2 36.8 1.6 -11.1674
391 1 9.6 38.4 0 -11.7508
362 3 14.4 36.8 1.6 -11.2031
393 1 12.8 38.4 0 -11.7575
364 2 17.6 36.8 1.6 -9.73053
395 2 16 38.4 0 -9.68841
366 1 20.8 36.8 1.6 -11.6362
397 3 19.2 38.4 0 -11.1592
368 1 24 36.8 1.6 -11.7179
399 3 22.4 38.4 0 -11.2083
401 3 25.6 38.4 0 -11.0819
370 1 27.2 36.8 1.6 -11.7508
403 3 28.8 38.4 0 -11.1264
372 1 30.4 36.8 1.6 -11.8124
405 3 32 38.4 0 -11.0839
374 1 33.6 36.8 1.6 -11.7093
407 1 35.2 38.4 0 -11.3977
376 1 36.8 36.8 1.6 -11.6474
409 2 38.4 38.4 0 -9.54981
378 1 40 36.8 1.6 -11.6885
411 2 41.6 38.4 0 -9.63382
380 1 43.2 36.8 1.6 -11.6164
413 1 44.8 38.4 0 -11.4447
382 3 46.4 36.8 1.6 -10.9948
415 1 48 38.4 0 -11.5882
384 3 49.6 36.8 1.6 -11.206
386 3 1.6 40 1.6 -11.1268
417 1 0 41.6 0 -11.7607
388 2 4.8 40 1.6 -9.69334
419 1 3.2 41.6 0 -11.7831
390 3 8 40 1.6 -11.1249
421 1 6.4 41.6 0 -11.8122
392 3 11.2 40 1.6 -11.1663
423 1 9.6 41.6 0 -11.8417
394 2 14.4 40 1.6 -9.67658
425 1 12.8 41.6 0 -11.7806
396 1 17.6 40 1.6 -11.6668
427 1 16 41.6 0 -11.6131
398 1 20.8 40 1.6 -11.745
429 3 19.2 41.6 0 -10.9987
400 1 24 40 1.6 -11.7442
431 3 22.4 41.6 0 -11.0861
433 3 25.6 41.6 0 -11.245
402 1 27.2 40 1.6 -11.8417
435 3 28.8 41.6 0 -11.081
404 1 30.4 40 1.6 -11.8415
437 3 32 41.6 0 -11.2766
406 1 33.6 40 1.6 -11.7457
439 3 35.2 41.6 0 -11.0834
408 1 36.8 40 1.6 -11.6749
441 3 38.4 41.6 0 -11.2071
410 1 40 40 1.6 -11.7811
443 3 41.6 41.6 0 -11.2021
412 1 43.2 40 1.6 -11.6733
445 3 44.8 41.6 0 -10.9891
414 1 46.4 40 1.6 -11.5667
447 2 48 41.6 0 -9.6978
416 2 49.6 40 1.6 -9.63563
418 3 1.6 43.2 1.6 -11.1265
449 1 0 44.8 0 -11.784
420 3 4.8 43.2 1.6 -11.0816
451 1 3.2 44.8 0 -11.8124
422 3 8 43.2 1.6 -11.2057
453 1 6.4 44.8 0 -11.8124
424 3 11.2 43.2 1.6 -11.2435
455 1 9.6 44.8 0 -11.7096
426 3 14.4 43.2 1.6 -11.1245
457 1 12.8 44.8 0 -11.7451
428 1 17.6 43.2 1.6 -11.5936
459 1 16 44.8 0 -11.7495
430 1 20.8 43.2 1.6 -11.614
461 2 19.2 44.8 0 -9.73313
432 1 24 43.2 1.6 -11.6503
463 3 22.4 44.8 0 -11.0447
465 3 25.6 44.8 0 -11.1252
434 1 27.2 43.2 1.6 -11.7844
467 2 28.8 44.8 0 -9.67724
436 1 30.4 43.2 1.6 -11.8124
469 3 32 44.8 0 -11.2045
438 1 33.6 43.2 1.6 -11.8415
471 3 35.2 44.8 0 -11.2051
440 1 36.8 43.2 1.6 -11.8417
473 3 38.4 44.8 0 -11.0816
442 1 40 43.2 1.6 -11.8122
475 2 41.6 44.8 0 -9.59861
444 1 43.2 43.2 1.6 -11.7497
477 1 44.8 44.8 0 -11.49
446 1 46.4 43.2 1.6 -11.6607
479 1 48 44.8 0 -11.6449
448 2 49.6 43.2 1.6 -9.76491
450 3 1.6 46.4 1.6 -11.166
481 1 0 48 0 -11.812
452 3 4.8 46.4 1.6 -11.2057
483 1 3.2 48 0 -11.7846
454 3 8 46.4 1.6 -11.2048
485 1 6.4 48 0 -11.7846
456 3 11.2 46.4 1.6 -11.1226
487 1 9.6 48 0 -11.7096
458 3 14.4 46.4 1.6 -11.2435
489 1 12.8 48 0 -11.7451
460 3 17.6 46.4 1.6 -11.2024
491 1 16 48 0 -11.8415
462 3 20.8 46.4 1.6 -11.0787
493 1 19.2 48 0 -11.7446
464 1 24 46.4 1.6 -11.5648
495 1 22.4 48 0 -11.5761
497 2 25.6 48 0 -9.66581
466 1 27.2 46.4 1.6 -11.6915
499 2 28.8 48 0 -9.67688
468 1 30.4 46.4 1.6 -11.7811
501 3 32 48 0 -11.2039
470 1 33.6 46.4 1.6 -11.8417
503 3 35.2 48 0 -11.2417
472 1 36.8 46.4 1.6 -11.8417
505 3 38.4 48 0 -11.1238
474 1 40 46.4 1.6 -11.7093
507 1 41.6 48 0 -11.4038
476 1 43.2 46.4 1.6 -11.5522
509 1 44.8 48 0 -11.2906
478 1 46.4 46.4 1.6 -11.509
511 1 48 48 0 -11.5287
480 3 49.6 46.4 1.6 -11.1605
482 2 1.6 49.6 1.6 -9.69294
484 3 4.8 49.6 1.6 -11.1251
486 3 8 49.6 1.6 -11.2423
488 3 11.2 49.6 1.6 -11.2423
490 3 14.4 49.6 1.6 -11.2414
492 3 17.6 49.6 1.6 -11.2417
494 3 20.8 49.6 1.6 -11.168
496 2 24 49.6 1.6 -9.62964
498 1 27.2 49.6 1.6 -11.7572
500 1 30.4 49.6 1.6 -11.7831
502 1 33.6 49.6 1.6 -11.8124
504 1 36.8 49.6 1.6 -11.8417
506 1 40 49.6 1.6 -11.7451
508 1 43.2 49.6 1.6 -11.6296
510 1 46.4 49.6 1.6 -11.5407
512 3 49.6 49.6 1.6 -11.1487
513 2 0 0 3.2 -9.66568
514 2 1.6 1.6 4.8 -9.72004
515 1 3.2 0 3.2 -11.6964
516 3 4.8 1.6 4.8 -11.2036
517 1 6.4 0 3.2 -11.8122
518 3 8 1.6 4.8 -11.242
519 1 9.6 0 3.2 -11.8417
520 3 11.2 1.6 4.8 -11.2414
521 1 12.8 0 3.2 -11.8417
522 3 14.4 1.6 4.8 -11.2414
523 1 16 0 3.2 -11.8417
524 3 17.6 1.6 4.8 -11.2033
525 1 19.2 0 3.2 -11.8124
526 2 20.8 1.6 4.8 -9.64734
527 1 22.4 0 3.2 -11.5873
528 1 24 1.6 4.8 -11.4707
529 2 25.6 0 3.2 -9.72346
530 1 27.2 1.6 4.8 -11.7577
531 3 28.8 0 3.2 -11.1248
532 1 30.4 1.6 4.8 -11.7844
533 2 32 0 3.2 -9.73511
534 1 33.6 1.6 4.8 -11.8122
535 3 35.2 0 3.2 -11.2033
536 1 36.8 1.6 4.8 -11.8417
537 3 38.4 0 3.2 -11.2414
538 1 40 1.6 4.8 -11.8417
539 3 41.6 0 3.2 -11.2423
540 1 43.2 1.6 4.8 -11.8417
541 3 44.8 0 3.2 -11.2057
542 1 46.4 1.6 4.8 -11.7503
543 2 48 0 3.2 -9.72165
544 1 49.6 1.6 4.8 -11.6976
545 2 0 3.2 3.2 -9.74137
546 3 1.6 4.8 4.8 -11.1276
547 1 3.2 3.2 3.2 -11.6159
548 3 4.8 4.8 4.8 -11.1285
549 1 6.4 3.2 3.2 -11.8122
550 3 8 4.8 4.8 -11.2426
551 1 9.6 3.2 3.2 -11.8417
552 3 11.2 4.8 4.8 -11.2414
553 1 12.8 3.2 3.2 -11.8417
554 3 14.4 4.8 4.8 -11.2414
555 1 16 3.2 3.2 -11.8417
556 3 17.6 4.8 4.8 -11.2426
557 1 19.2 3.2 3.2 -11.8124
558 3 20.8 4.8 4.8 -11.0824
559 1 22.4 3.2 3.2 -11.5479
560 1 24 4.8 4.8 -11.4826
561 3 25.6 3.2 3.2 -11.0788
562 1 27.2 4.8 4.8 -11.7505
563 3 28.8 3.2 3.2 -11.2429
564 1 30.4 4.8 4.8 -11.7807
565 3 32 3.2 3.2 -11.2045
566 1 33.6 4.8 4.8 -11.7888
567 3 35.2 3.2 3.2 -11.242
568 1 36.8 4.8 4.8 -11.812
569 3 38.4 3.2 3.2 -11.2417
570 1 40 4.8 4.8 -11.8124
571 3 41.6 3.2 3.2 -11.242
572 1 43.2 4.8 4.8 -11.7508
573 3 44.8 3.2 3.2 -11.1654
574 1 46.4 4.8 4.8 -11.6333
575 2 48 3.2 3.2 -9.67152
576 3 49.6 4.8 4.8 -11.1821
577 2 0 6.4 3.2 -9.77784
578 1 1.6 8 4.8 -11.6724
579 1 3.2 6.4 3.2 -11.5529
580 2 4.8 8 4.8 -9.61008
581 1 6.4 6.4 3.2 -11.6856
582 3 8 8 4.8 -11.166
583 1 9.6 6.4 3.2 -11.8122
584 3 11.2 8 4.8 -11.242
585 1 12.8 6.4 3.2 -11.8417
586 3 14.4 8 4.8 -11.2036
587 1 16 6.4 3.2 -11.8417
588 3 17.6 8 4.8 -11.2392
589 1 19.2 6.4 3.2 -11.812
590 2 20.8 8 4.8 -9.73412
591 1 22.4 6.4 3.2 -11.5658
592 1 24 8 4.8 -11.6062
593 2 25.6 6.4 3.2 -9.66211
594 1 27.2 8 4.8 -11.7803
595 3 28.8 6.4 3.2 -11.2371
596 2 30.4 8 4.8 -9.78842
597 3 32 6.4 3.2 -11.1921
598 2 33.6 8 4.8 -9.65627
599 3 35.2 6.4 3.2 -11.2332
600 1 36.8 8 4.8 -11.6383
601 3 38.4 6.4 3.2 -11.1657
602 1 40 8 4.8 -11.7528
603 3 41.6 6.4 3.2 -11.1645
604 1 43.2 8 4.8 -11.7836
605 2 44.8 6.4 3.2 -9.75549
606 2 46.4 8 4.8 -9.73292
607 1 48 6.4 3.2 -11.5988
608 3 49.6 8 4.8 -11.2282
609 3 0 9.6 3.2 -11.2568
610 1 1.6 11.2 4.8 -11.6587
611 3 3.2 9.6 3.2 -11.1489
612 2 4.8 11.2 4.8 -9.6878
613 1 6.4 9.6 3.2 -11.6802
614 3 8 11.2 4.8 -11.1252
615 1 9.6 9.6 3.2 -11.8124
616 3 11.2 11.2 4.8 -11.2039
617 1 12.8 9.6 3.2 -11.8124
618 2 14.4 11.2 4.8 -9.73522
619 1 16 9.6 3.2 -11.8122
620 3 17.6 11.2 4.8 -11.1581
621 1 19.2 9.6 3.2 -11.8141
622 2 20.8 11.2 4.8 -9.76871
623 1 22.4 9.6 3.2 -11.6671
624 1 24 11.2 4.8 -11.7072
625 3 25.6 9.6 3.2 -11.0346
626 1 27.2 11.2 4.8 -11.714
627 2 28.8 9.6 3.2 -9.73115
628 2 30.4 11.2 4.8 -9.78686
629 1 32 9.6 3.2 -11.6933
630 3 33.6 11.2 4.8 -11.0808
631 1 35.2 9.6 3.2 -11.6291
632 2 36.8 11.2 4.8 -9.65573
633 2 38.4 9.6 3.2 -9.72789
634 1 40 11.2 4.8 -11.8144
635 3 41.6 9.6 3.2 -11.2048
636 1 43.2 11.2 4.8 -11.8415
637 3 44.8 9.6 3.2 -11.3355
638 1 46.4 11.2 4.8 -11.7591
639 3 48 9.6 3.2 -11.1708
640 2 49.6 11.2 4.8 -9.76389
641 2 0 12.8 3.2 -9.63211
642 1 1.6 14.4 4.8 -11.6108
643 2 3.2 12.8 3.2 -9.72967
644 1 4.8 14.4 4.8 -11.6074
645 1 6.4 12.8 3.2 -11.6064
646 2 8 14.4 4.8 -9.67087
647 1 9.6 12.8 3.2 -11.7808
648 3 11.2 14.4 4.8 -11.081
649 1 12.8 12.8 3.2 -11.8124
650 3 14.4 14.4 4.8 -11.1645
651 1 16 12.8 3.2 -11.7846
652 2 17.6 14.4 4.8 -9.70728
653 1 19.2 12.8 3.2 -11.7579
654 2 20.8 14.4 4.8 -9.77744
655 2 22.4 12.8 3.2 -9.72357
656 1 24 14.4 4.8 -11.7572
657 2 25.6 12.8 3.2 -9.59543
658 1 27.2 14.4 4.8 -11.7152
659 1 28.8 12.8 3.2 -11.4312
660 2 30.4 14.4 4.8 -9.70856
661 1 32 12.8 3.2 -11.6388
662 3 33.6 14.4 4.8 -11.105
663 1 35.2 12.8 3.2 -11.7188
664 1 36.8 14.4 4.8 -11.6544
665 3 38.4 12.8 3.2 -11.2619
666 1 40 14.4 4.8 -11.8119
667 3 41.6 12.8 3.2 -11.2045
668 1 43.2 14.4 4.8 -11.7811
669 3 44.8 12.8 3.2 -11.1654
670 1 46.4 14.4 4.8 -11.6915
671 2 48 12.8 3.2 -9.68891
672 1 49.6 14.4 4.8 -11.6308
673 3 0 16 3.2 -11.1588
674 1 1.6 17.6 4.8 -11.8122
675 3 3.2 16 3.2 -11.1668
676 1 4.8 17.6 4.8 -11.7504
677 2 6.4 16 3.2 -9.64056
678 1 8 17.6 4.8 -11.3947
679 1 9.6 16 3.2 -11.583
680 1 11.2 17.6 4.8 -11.3742
681 1 12.8 16 3.2 -11.7451
682 3 14.4 17.6 4.8 -11.1226
683 1 16 16 3.2 -11.8124
684 3 17.6 17.6 4.8 -11.1642
685 1 19.2 16 3.2 -11.7577
686 2 20.8 17.6 4.8 -9.81687
687 2 22.4 16 3.2 -9.78026
688 1 24 17.6 4.8 -11.7251
689 3 25.6 16 3.2 -10.9936
690 1 27.2 17.6 4.8 -11.8122
691 2 28.8 16 3.2 -9.59347
692 1 30.4 17.6 4.8 -11.7283
693 1 32 16 3.2 -11.5364
694 2 33.6 17.6 4.8 -9.768
695 1 35.2 16 3.2 -11.6499
696 1 36.8 17.6 4.8 -11.7276
697 2 38.4 16 3.2 -9.73588
698 1 40 17.6 4.8 -11.7828
699 3 41.6 16 3.2 -11.1676
700 1 43.2 17.6 4.8 -11.6893
701 2 44.8 16 3.2 -9.61479
702 1 46.4 17.6 4.8 -11.6573
703 2 48 16 3.2 -9.68877
704 1 49.6 17.6 4.8 -11.7856
705 3 0 19.2 3.2 -11.2666
706 1 1.6 20.8 4.8 -11.812
707 3 3.2 19.2 3.2 -11.2429
708 1 4.8 20.8 4.8 -11.7808
709 3 6.4 19.2 3.2 -11.0824
710 1 8 20.8 4.8 -11.567
711 1 9.6 19.2 3.2 -11.5144
712 3 11.2 20.8 4.8 -11.0345
713 1 12.8 19.2 3.2 -11.7448
714 3 14.4 20.8 4.8 -11.2426
715 1 16 19.2 3.2 -11.8417
716 3 17.6 20.8 4.8 -11.2423
717 1 19.2 19.2 3.2 -11.8178
718 3 20.8 20.8 4.8 -11.0817
719 2 22.4 19.2 3.2 -9.6581
720 1 24 20.8 4.8 -11.567
721 3 25.6 19.2 3.2 -11.1266
722 1 27.2 20.8 4.8 -11.7806
723 3 28.8 19.2 3.2 -11.1666
724 1 30.4 20.8 4.8 -11.812
725 2 32 19.2 3.2 -9.66401
726 1 33.6 20.8 4.8 -11.8144
727 2 35.2 19.2 3.2 -9.73412
728 1 36.8 20.8 4.8 -11.812
729 3 38.4 19.2 3.2 -11.1256
730 1 40 20.8 4.8 -11.6744
731 3 41.6 19.2 3.2 -11.0846
732 1 43.2 20.8 4.8 -11.5047
733 2 44.8 19.2 3.2 -9.59907
734 1 46.4 20.8 4.8 -11.503
735 2 48 19.2 3.2 -9.70262
736 1 49.6 20.8 4.8 -11.7276
737 2 0 22.4 3.2 -9.79101
738 1 1.6 24 4.8 -11.7247
739 3 3.2 22.4 3.2 -11.1651
740 1 4.8 24 4.8 -11.61
741 3 6.4 22.4 3.2 -11.1277
742 1 8 24 4.8 -11.489
743 2 9.6 22.4 3.2 -9.61796
744 2 11.2 24 4.8 -9.72251
745 1 12.8 22.4 3.2 -11.8423
746 3 14.4 24 4.8 -11.1636
747 1 16 22.4 3.2 -11.8417
748 3 17.6 24 4.8 -11.2423
749 1 19.2 22.4 3.2 -11.7806
750 3 20.8 24 4.8 -11.1663
751 1 22.4 22.4 3.2 -11.5846
752 2 24 24 4.8 -9.67161
753 2 25.6 22.4 3.2 -9.66268
754 1 27.2 24 4.8 -11.6316
755 3 28.8 22.4 3.2 -11.1654
756 1 30.4 24 4.8 -11.6784
757 3 32 22.4 3.2 -11.206
758 1 33.6 24 4.8 -11.7447
759 3 35.2 22.4 3.2 -11.1654
760 1 36.8 24 4.8 -11.8124
761 3 38.4 22.4 3.2 -11.126
762 1 40 24 4.8 -11.5984
763 2 41.6 22.4 3.2 -9.60308
764 2 43.2 24 4.8 -9.63929
765 1 44.8 22.4 3.2 -11.5315
766 2 46.4 24 4.8 -9.63826
767 1 48 22.4 3.2 -11.6177
768 2 49.6 24 4.8 -9.75356
769 2 0 25.6 3.2 -9.77742
771 2 3.2 25.6 3.2 -9.64864
773 2 6.4 25.6 3.2 -9.60216
775 1 9.6 25.6 3.2 -11.6711
777 1 12.8 25.6 3.2 -11.7841
779 1 16 25.6 3.2 -11.7846
781 1 19.2 25.6 3.2 -11.7511
783 1 22.4 25.6 3.2 -11.5826
785 2 25.6 25.6 3.2 -9.63993
787 3 28.8 25.6 3.2 -11.0827
789 3 32 25.6 3.2 -11.1235
791 3 35.2 25.6 3.2 -11.2051
793 2 38.4 25.6 3.2 -9.57906
795 1 41.6 25.6 3.2 -11.5488
797 1 44.8 25.6 3.2 -11.7849
799 1 48 25.6 3.2 -11.7553
770 1 1.6 27.2 4.8 -11.7131
801 2 0 28.8 3.2 -9.75094
772 1 4.8 27.2 4.8 -11.6883
803 3 3.2 28.8 3.2 -11.0419
774 2 8 27.2 4.8 -9.70123
805 2 6.4 28.8 3.2 -9.667
776 3 11.2 27.2 4.8 -11.1251
807 1 9.6 28.8 3.2 -11.7666
778 2 14.4 27.2 4.8 -9.73533
809 1 12.8 28.8 3.2 -11.812
780 3 17.6 27.2 4.8 -11.1226
811 1 16 28.8 3.2 -11.7583
782 3 20.8 27.2 4.8 -11.2057
813 1 19.2 28.8 3.2 -11.7532
784 3 24 27.2 4.8 -11.0798
815 1 22.4 28.8 3.2 -11.6176
817 2 25.6 28.8 3.2 -9.56722
786 1 27.2 27.2 4.8 -11.5611
819 3 28.8 28.8 3.2 -11.168
788 1 30.4 27.2 4.8 -11.6504
821 3 32 28.8 3.2 -11.2045
790 1 33.6 27.2 4.8 -11.7447
823 3 35.2 28.8 3.2 -11.2045
792 1 36.8 27.2 4.8 -11.7808
825 2 38.4 28.8 3.2 -9.62641
794 1 40 27.2 4.8 -11.5637
827 1 41.6 28.8 3.2 -11.5196
796 3 43.2 27.2 4.8 -11.073
829 1 44.8 28.8 3.2 -11.7828
798 3 46.4 27.2 4.8 -11.1237
831 1 48 28.8 3.2 -11.7565
800 3 49.6 27.2 4.8 -11.1776
802 1 1.6 30.4 4.8 -11.6434
833 1 0 32 3.2 -11.6377
804 1 4.8 30.4 4.8 -11.6964
835 2 3.2 32 3.2 -9.57076
806 2 8 30.4 4.8 -9.67411
837 2 6.4 32 3.2 -9.55653
808 3 11.2 30.4 4.8 -11.1651
839 2 9.6 32 3.2 -9.59327
810 3 14.4 30.4 4.8 -11.1645
841 1 12.8 32 3.2 -11.7817
812 2 17.6 30.4 4.8 -9.73544
843 1 16 32 3.2 -11.7846
814 3 20.8 30.4 4.8 -11.126
845 1 19.2 32 3.2 -11.7238
816 2 24 30.4 4.8 -9.51422
847 1 22.4 32 3.2 -11.5241
849 1 25.6 32 3.2 -11.3773
818 1 27.2 30.4 4.8 -11.5547
851 3 28.8 32 3.2 -11.0407
820 1 30.4 30.4 4.8 -11.7487
853 3 32 32 3.2 -11.2429
822 1 33.6 30.4 4.8 -11.8415
855 3 35.2 32 3.2 -11.2048
824 1 36.8 30.4 4.8 -11.7272
857 2 38.4 32 3.2 -9.56401
826 2 40 30.4 4.8 -9.50198
859 1 41.6 32 3.2 -11.5694
828 3 43.2 30.4 4.8 -11.0414
861 1 44.8 32 3.2 -11.7828
830 2 46.4 30.4 4.8 -9.7076
863 1 48 32 3.2 -11.7508
832 2 49.6 30.4 4.8 -9.69947
834 2 1.6 33.6 4.8 -9.73474
865 1 0 35.2 3.2 -11.812
836 1 4.8 33.6 4.8 -11.5953
867 1 3.2 35.2 3.2 -11.6157
838 1 8 33.6 4.8 -11.5611
869 2 6.4 35.2 3.2 -9.53441
840 1 11.2 33.6 4.8 -11.5291
871 1 9.6 35.2 3.2 -11.5656
842 3 14.4 33.6 4.8 -11.1229
873 1 12.8 35.2 3.2 -11.7444
844 3 17.6 33.6 4.8 -11.1241
875 1 16 35.2 3.2 -11.7806
846 2 20.8 33.6 4.8 -9.59628
877 1 19.2 35.2 3.2 -11.6069
848 1 24 33.6 4.8 -11.378
879 2 22.4 35.2 3.2 -9.53177
881 2 25.6 35.2 3.2 -9.52515
850 2 27.2 33.6 4.8 -9.57021
883 2 28.8 35.2 3.2 -9.75007
852 1 30.4 33.6 4.8 -11.7643
885 3 32 35.2 3.2 -11.2039
854 1 33.6 33.6 4.8 -11.8415
887 3 35.2 35.2 3.2 -11.2048
856 1 36.8 33.6 4.8 -11.7093
889 3 38.4 35.2 3.2 -11.1255
858 1 40 33.6 4.8 -11.5631
891 2 41.6 35.2 3.2 -9.72995
860 3 43.2 33.6 4.8 -11.159
893 1 44.8 35.2 3.2 -11.7325
862 3 46.4 33.6 4.8 -11.1257
895 1 48 35.2 3.2 -11.812
864 3 49.6 33.6 4.8 -11.1666
866 3 1.6 36.8 4.8 -11.08
897 1 0 38.4 3.2 -11.6733
868 1 4.8 36.8 4.8 -11.6314
899 1 3.2 38.4 3.2 -11.6377
870 1 8 36.8 4.8 -11.6578
901 2 6.4 38.4 3.2 -9.63335
872 3 11.2 36.8 4.8 -11.1495
903 1 9.6 38.4 3.2 -11.6895
874 3 14.4 36.8 4.8 -11.1247
905 1 12.8 38.4 3.2 -11.6738
876 3 17.6 36.8 4.8 -11.123
907 1 16 38.4 3.2 -11.7092
878 1 20.8 36.8 4.8 -11.5247
909 2 19.2 38.4 3.2 -9.78248
880 1 24 36.8 4.8 -11.5136
911 3 22.4 38.4 3.2 -11.0443
913 3 25.6 38.4 3.2 -11.1683
882 1 27.2 36.8 4.8 -11.6758
915 3 28.8 38.4 3.2 -11.1648
884 1 30.4 36.8 4.8 -11.7501
917 3 32 38.4 3.2 -11.2048
886 1 33.6 36.8 4.8 -11.8124
919 2 35.2 38.4 3.2 -9.64648
888 1 36.8 36.8 4.8 -11.8124
921 3 38.4 38.4 3.2 -11.1657
890 1 40 36.8 4.8 -11.788
923 3 41.6 38.4 3.2 -11.1625
892 2 43.2 36.8 4.8 -9.75174
925 2 44.8 38.4 3.2 -9.67046
894 2 46.4 36.8 4.8 -9.73476
927 1 48 38.4 3.2 -11.6161
896 3 49.6 36.8 4.8 -11.1261
898 2 1.6 40 4.8 -9.68058
929 1 0 41.6 3.2 -11.6311
900 1 4.8 40 4.8 -11.5
931 1 3.2 41.6 3.2 -11.587
902 1 8 40 4.8 -11.6091
933 1 6.4 41.6 3.2 -11.5701
904 2 11.2 40 4.8 -9.70433
935 1 9.6 41.6 3.2 -11.719
906 1 14.4 40 4.8 -11.4205
937 1 12.8 41.6 3.2 -11.6864
908 3 17.6 40 4.8 -11.2226
939 2 16 41.6 3.2 -9.66559
910 3 20.8 40 4.8 -11.1483
941 2 19.2 41.6 3.2 -9.75213
912 1 24 40 4.8 -11.5305
943 1 22.4 41.6 3.2 -11.56
945 3 25.6 41.6 3.2 -11.0414
914 1 27.2 40 4.8 -11.644
947 3 28.8 41.6 3.2 -11.2054
916 1 30.4 40 4.8 -11.7811
949 3 32 41.6 3.2 -11.2423
918 1 33.6 40 4.8 -11.7846
951 3 35.2 41.6 3.2 -11.1645
920 1 36.8 40 4.8 -11.7846
953 3 38.4 41.6 3.2 -11.2423
922 1 40 40 4.8 -11.8122
955 3 41.6 41.6 3.2 -11.2426
924 1 43.2 40 4.8 -11.7881
957 3 44.8 41.6 3.2 -11.1668
926 1 46.4 40 4.8 -11.6584
959 2 48 41.6 3.2 -9.66489
928 1 49.6 40 4.8 -11.5529
930 2 1.6 43.2 4.8 -9.69878
961 1 0 44.8 3.2 -11.6587
932 1 4.8 43.2 4.8 -11.5179
963 1 3.2 44.8 3.2 -11.6935
934 2 8 43.2 4.8 -9.67056
965 1 6.4 44.8 3.2 -11.7196
936 3 11.2 43.2 4.8 -11.1627
967 1 9.6 44.8 3.2 -11.812
938 2 14.4 43.2 4.8 -9.68996
969 1 12.8 44.8 3.2 -11.8122
940 3 17.6 43.2 4.8 -11.1932
971 1 16 44.8 3.2 -11.7599
942 3 20.8 43.2 4.8 -11.163
973 1 19.2 44.8 3.2 -11.7242
944 2 24 43.2 4.8 -9.54081
975 1 22.4 44.8 3.2 -11.5242
977 2 25.6 44.8 3.2 -9.59367
946 1 27.2 43.2 4.8 -11.6395
979 3 28.8 44.8 3.2 -11.1257
948 1 30.4 43.2 4.8 -11.7808
981 3 32 44.8 3.2 -11.242
950 1 33.6 43.2 4.8 -11.8124
983 3 35.2 44.8 3.2 -11.2417
952 1 36.8 43.2 4.8 -11.8124
985 3 38.4 44.8 3.2 -11.2417
954 1 40 43.2 4.8 -11.8417
987 3 41.6 44.8 3.2 -11.2051
956 1 43.2 43.2 4.8 -11.8417
989 3 44.8 44.8 3.2 -11.125
958 1 46.4 43.2 4.8 -11.8122
991 3 48 44.8 3.2 -11.1193
960 1 49.6 43.2 4.8 -11.6665
962 2 1.6 46.4 4.8 -9.59868
993 1 0 48 3.2 -11.6849
964 2 4.8 46.4 4.8 -9.63854
995 1 3.2 48 3.2 -11.6885
966 3 8 46.4 4.8 -11.2031
997 1 6.4 48 3.2 -11.7808
968 3 11.2 46.4 4.8 -11.2426
999 1 9.6 48 3.2 -11.8417
970 3 14.4 46.4 4.8 -11.2036
1001 1 12.8 48 3.2 -11.8417
972 3 17.6 46.4 4.8 -11.2429
1003 1 16 48 3.2 -11.8417
974 3 20.8 46.4 4.8 -11.1253
1005 1 19.2 48 3.2 -11.8415
976 1 24 46.4 4.8 -11.4294
1007 1 22.4 48 3.2 -11.5498
1009 2 25.6 48 3.2 -9.5943
978 1 27.2 46.4 4.8 -11.58
1011 3 28.8 48 3.2 -11.126
980 1 30.4 46.4 4.8 -11.7811
1013 3 32 48 3.2 -11.2039
982 1 33.6 46.4 4.8 -11.8417
1015 3 35.2 48 3.2 -11.2417
984 1 36.8 46.4 4.8 -11.8417
1017 3 38.4 48 3.2 -11.2423
986 1 40 46.4 4.8 -11.8417
1019 3 41.6 48 3.2 -11.1235
988 1 43.2 46.4 4.8 -11.8417
1021 3 44.8 48 3.2 -11.0827
990 1 46.4 46.4 4.8 -11.7804
1023 2 48 48 3.2 -9.7606
992 1 49.6 46.4 4.8 -11.6036
994 2 1.6 49.6 4.8 -9.63688
996 2 4.8 49.6 4.8 -9.6591
998 3 8 49.6 4.8 -11.2048
1000 3 11.2 49.6 4.8 -11.2414
1002 3 14.4 49.6 4.8 -11.2414
1004 3 17.6 49.6 4.8 -11.2417
1006 3 20.8 49.6 4.8 -11.0816
1008 1 24 49.6 4.8 -11.4933
1010 1 27.2 49.6 4.8 -11.714
1012 1 30.4 49.6 4.8 -11.7527
1014 1 33.6 49.6 4.8 -11.8124
1016 1 36.8 49.6 4.8 -11.8417
1018 1 40 49.6 4.8 -11.8417
1020 1 43.2 49.6 4.8 -11.8417
1022 1 46.4 49.6 4.8 -11.788
1024 2 49.6 49.6 4.8 -9.68936
1025 1 0 0 6.4 -11.5161
1026 1 1.6 1.6 8 -11.6373
1027 2 3.2 0 6.4 -9.63162
1028 2 4.8 1.6 8 -9.67145
1029 1 6.4 0 6.4 -11.7194
1030 3 8 1.6 8 -11.166
1031 1 9.6 0 6.4 -11.8417
1032 3 11.2 1.6 8 -11.2417
1033 1 12.8 0 6.4 -11.8417
1034 3 14.4 1.6 8 -11.2417
1035 1 16 0 6.4 -11.8417
1036 3 17.6 1.6 8 -11.2429
1037 1 19.2 0 6.4 -11.8124
1038 3 20.8 1.6 8 -11.0838
1039 1 22.4 0 6.4 -11.619
1040 2 24 1.6 8 -9.72972
1041 2 25.6 0 6.4 -9.73899
1042 2 27.2 1.6 8 -9.84839
1043 2 28.8 0 6.4 -9.75967
1044 1 30.4 1.6 8 -11.5569
1045 3 32 0 6.4 -11.0413
1046 1 33.6 1.6 8 -11.5719
1047 3 35.2 0 6.4 -11.2435
1048 1 36.8 1.6 8 -11.7089
1049 3 38.4 0 6.4 -11.242
1050 1 40 1.6 8 -11.7846
1051 3 41.6 0 6.4 -11.2036
1052 1 43.2 1.6 8 -11.7811
1053 3 44.8 0 6.4 -11.2045
1054 1 46.4 1.6 8 -11.7831
1055 3 48 0 6.4 -11.0807
1056 1 49.6 1.6 8 -11.6809
1057 2 0 3.2 6.4 -9.71071
1058 1 1.6 4.8 8 -11.6317
1059 1 3.2 3.2 6.4 -11.6751
1060 2 4.8 4.8 8 -9.56757
1061 1 6.4 3.2 6.4 -11.7806
1062 3 8 4.8 8 -11.206
1063 1 9.6 3.2 6.4 -11.8417
1064 3 11.2 4.8 8 -11.2417
1065 1 12.8 3.2 6.4 -11.8417
1066 3 14.4 4.8 8 -11.2423
1067 1 16 3.2 6.4 -11.8417
1068 3 17.6 4.8 8 -11.1249
1069 1 19.2 3.2 6.4 -11.7844
1070 2 20.8 4.8 8 -9.63851
1071 1 22.4 3.2 6.4 -11.5332
1072 1 24 4.8 8 -11.6089
1073 2 25.6 3.2 6.4 -9.72011
1074 1 27.2 4.8 8 -11.7217
1075 3 28.8 3.2 6.4 -11.2036
1076 1 30.4 4.8 8 -11.6466
1077 3 32 3.2 6.4 -11.0844
1078 2 33.6 4.8 8 -9.61648
1079 3 35.2 3.2 6.4 -11.1648
1080 1 36.8 4.8 8 -11.6395
1081 3 38.4 3.2 6.4 -11.2051
1082 1 40 4.8 8 -11.7528
1083 3 41.6 3.2 6.4 -11.2042
1084 1 43.2 4.8 8 -11.7811
1085 3 44.8 3.2 6.4 -11.1657
1086 1 46.4 4.8 8 -11.6409
1087 2 48 3.2 6.4 -9.70014
1088 1 49.6 4.8 8 -11.681
1089 2 0 6.4 6.4 -9.74645
1090 1 1.6 8 8 -11.5794
1091 1 3.2 6.4 6.4 -11.5265
1092 1 4.8 8 8 -11.406
1093 1 6.4 6.4 6.4 -11.6744
1094 3 8 8 8 -11.0384
1095 1 9.6 6.4 6.4 -11.8417
1096 3 11.2 8 8 -11.2045
1097 1 12.8 6.4 6.4 -11.8417
1098 3 14.4 8 8 -11.1657
1099 1 16 6.4 6.4 -11.8122
1100 2 17.6 8 8 -9.69877
1101 1 19.2 6.4 6.4 -11.7276
1102 1 20.8 8 8 -11.6785
1103 2 22.4 6.4 6.4 -9.63622