ITEM: TIMESTEP
0
ITEM: NUMBER OF ATOMS
8192
ITEM: BOX BOUNDS pp pp pp
0.0000000000000000e+00 5.1200000000000003e+01
0.0000000000000000e+00 5.1200000000000003e+01
0.0000000000000000e+00 5.1200000000000003e+01
ITEM: ATOMS id type x y z c_eng
1 1 0 0 0 -11.5732
2 1 1.6 1.6 1.6 -11.5641
3 1 3.2 0 0 -11.7085
4 3 4.8 1.6 1.6 -11.1643
5 1 6.4 0 0 -11.8124
6 3 8 1.6 1.6 -11.1642
7 1 9.6 0 0 -11.7511
8 2 11.2 1.6 1.6 -9.70694
9 1 12.8 0 0 -11.7511
10 3 14.4 1.6 1.6 -11.1648
11 1 16 0 0 -11.7811
12 3 17.6 1.6 1.6 -11.1655
13 1 19.2 0 0 -11.7528
14 3 20.8 1.6 1.6 -11.1674
15 1 22.4 0 0 -11.6293
16 2 24 1.6 1.6 -9.69856
17 3 25.6 0 0 -11.2702
18 1 27.2 1.6 1.6 -11.8679
19 3 28.8 0 0 -11.2036
20 1 30.4 1.6 1.6 -11.8124
21 3 32 0 0 -11.2036
22 1 33.6 1.6 1.6 -11.7846
23 3 35.2 0 0 -11.242
24 1 36.8 1.6 1.6 -11.8124
25 3 38.4 0 0 -11.2414
26 1 40 1.6 1.6 -11.8124
27 3 41.6 0 0 -11.2423
28 1 43.2 1.6 1.6 -11.8124
29 3 44.8 0 0 -11.0813
30 1 46.4 1.6 1.6 -11.7093
31 1 48 0 0 -11.495
32 1 49.6 1.6 1.6 -11.5491
33 2 0 3.2 0 -9.63649
34 1 1.6 4.8 1.6 -11.6158
35 1 3.2 3.2 0 -11.6492
36 2 4.8 4.8 1.6 -9.70872
37 1 6.4 3.2 0 -11.7849
38 3 8 4.8 1.6 -11.2402
39 1 9.6 3.2 0 -11.722
40 3 11.2 4.8 1.6 -11.1642
41 1 12.8 3.2 0 -11.7223
42 3 14.4 4.8 1.6 -11.2423
43 1 16 3.2 0 -11.7811
44 3 17.6 4.8 1.6 -11.242
45 1 19.2 3.2 0 -11.8124
46 3 20.8 4.8 1.6 -11.125
47 1 22.4 3.2 0 -11.5804
48 1 24 4.8 1.6 -11.5343
49 3 25.6 3.2 0 -11.1188
50 1 27.2 4.8 1.6 -11.7803
51 3 28.8 3.2 0 -11.2042
52 1 30.4 4.8 1.6 -11.812
53 2 32 3.2 0 -9.73522
54 1 33.6 4.8 1.6 -11.7863
55 3 35.2 3.2 0 -11.1223
56 1 36.8 4.8 1.6 -11.7844
57 3 38.4 3.2 0 -11.2426
58 1 40 4.8 1.6 -11.7511
59 3 41.6 3.2 0 -11.1645
60 1 43.2 4.8 1.6 -11.7511
61 3 44.8 3.2 0 -11.2051
62 1 46.4 4.8 1.6 -11.7446
63 3 48 3.2 0 -11.1653
64 1 49.6 4.8 1.6 -11.7129
65 3 0 6.4 0 -11.2011
66 1 1.6 8 1.6 -11.6392
67 2 3.2 6.4 0 -9.7009
68 1 4.8 8 1.6 -11.5266
69 2 6.4 6.4 0 -9.72766
70 2 8 8 1.6 -9.66102
71 1 9.6 6.4 0 -11.7856
72 3 11.2 8 1.6 -11.2042
73 1 12.8 6.4 0 -11.8124
74 3 14.4 8 1.6 -11.2414
75 1 16 6.4 0 -11.8417
76 3 17.6 8 1.6 -11.2417
77 1 19.2 6.4 0 -11.8417
78 3 20.8 8 1.6 -11.166
79 1 22.4 6.4 0 -11.6196
80 2 24 8 1.6 -9.64054
81 2 25.6 6.4 0 -9.73133
82 1 27.2 8 1.6 -11.6702
83 3 28.8 6.4 0 -11.2399
84 1 30.4 8 1.6 -11.6992
85 3 32 6.4 0 -11.1244
86 2 33.6 8 1.6 -9.6181
87 2 35.2 6.4 0 -9.72263
88 1 36.8 8 1.6 -11.6389
89 3 38.4 6.4 0 -11.1254
90 1 40 8 1.6 -11.7226
91 2 41.6 6.4 0 -9.67922
92 1 43.2 8 1.6 -11.7811
93 3 44.8 6.4 0 -11.2051
94 1 46.4 8 1.6 -11.7093
95 3 48 6.4 0 -11.1235
96 1 49.6 8 1.6 -11.7194
97 3 0 9.6 0 -11.1663
98 1 1.6 11.2 1.6 -11.7521
99 3 3.2 9.6 0 -11.0786
100 2 4.8 11.2 1.6 -9.65918
101 1 6.4 9.6 0 -11.6017
102 3 8 11.2 1.6 -11.0846
103 1 9.6 9.6 0 -11.7499
104 3 11.2 11.2 1.6 -11.2423
105 1 12.8 9.6 0 -11.8417
106 3 14.4 11.2 1.6 -11.2414
107 1 16 9.6 0 -11.8417
108 3 17.6 11.2 1.6 -11.2423
109 1 19.2 9.6 0 -11.8417
110 3 20.8 11.2 1.6 -11.2397
111 1 22.4 9.6 0 -11.7501
112 3 24 11.2 1.6 -11.1084
113 1 25.6 9.6 0 -11.5407
114 1 27.2 11.2 1.6 -11.5517
115 2 28.8 9.6 0 -9.7172
116 2 30.4 11.2 1.6 -9.6724
117 1 32 9.6 0 -11.5981
118 3 33.6 11.2 1.6 -11.0865
119 1 35.2 9.6 0 -11.5493
120 2 36.8 11.2 1.6 -9.69375
121 2 38.4 9.6 0 -9.72873
122 1 40 11.2 1.6 -11.7592
123 3 41.6 9.6 0 -11.1648
124 1 43.2 11.2 1.6 -11.8417
125 3 44.8 9.6 0 -11.2426
126 1 46.4 11.2 1.6 -11.7508
127 3 48 9.6 0 -11.1254
128 1 49.6 11.2 1.6 -11.7253
129 2 0 12.8 0 -9.64793
130 1 1.6 14.4 1.6 -11.7505
131 3 3.2 12.8 0 -11.126
132 1 4.8 14.4 1.6 -11.6009
133 1 6.4 12.8 0 -11.5288
134 2 8 14.4 1.6 -9.66729
135 1 9.6 12.8 0 -11.7836
136 3 11.2 14.4 1.6 -11.2042
137 1 12.8 12.8 0 -11.8415
138 3 14.4 14.4 1.6 -11.242
139 1 16 12.8 0 -11.8417
140 3 17.6 14.4 1.6 -11.1642
141 1 19.2 12.8 0 -11.8122
142 2 20.8 14.4 1.6 -9.78181
143 1 22.4 12.8 0 -11.7852
144 2 24 14.4 1.6 -9.69328
145 1 25.6 12.8 0 -11.5336
146 1 27.2 14.4 1.6 -11.5428
147 2 28.8 12.8 0 -9.64549
148 1 30.4 14.4 1.6 -11.5185
149 1 32 12.8 0 -11.6946
150 3 33.6 14.4 1.6 -10.9935
151 1 35.2 12.8 0 -11.7823
152 3 36.8 14.4 1.6 -11.1527
153 2 38.4 12.8 0 -9.77513
154 1 40 14.4 1.6 -11.6802
155 3 41.6 12.8 0 -11.1657
156 1 43.2 14.4 1.6 -11.8124
157 3 44.8 12.8 0 -11.2042
158 1 46.4 14.4 1.6 -11.7508
159 2 48 12.8 0 -9.64554
160 1 49.6 14.4 1.6 -11.7156
161 3 0 16 0 -11.2008
162 1 1.6 17.6 1.6 -11.8421
163 3 3.2 16 0 -11.1256
164 1 4.8 17.6 1.6 -11.7259
165 1 6.4 16 0 -11.4895
166 2 8 17.6 1.6 -9.70201
167 1 9.6 16 0 -11.7174
168 3 11.2 17.6 1.6 -11.2057
169 1 12.8 16 0 -11.8417
170 3 14.4 17.6 1.6 -11.2033
171 1 16 16 0 -11.8417
172 3 17.6 17.6 1.6 -11.2051
173 1 19.2 16 0 -11.7508
174 2 20.8 17.6 1.6 -9.59306
175 1 22.4 16 0 -11.6298
176 1 24 17.6 1.6 -11.4814
177 1 25.6 16 0 -11.5526
178 1 27.2 17.6 1.6 -11.6539
179 2 28.8 16 0 -9.67049
180 1 30.4 17.6 1.6 -11.536
181 1 32 16 0 -11.563
182 1 33.6 17.6 1.6 -11.4334
183 1 35.2 16 0 -11.6798
184 2 36.8 17.6 1.6 -9.60862
185 1 38.4 16 0 -11.6544
186 1 40 17.6 1.6 -11.6717
187 2 41.6 16 0 -9.6928
188 1 43.2 17.6 1.6 -11.7242
189 3 44.8 16 0 -11.1262
190 1 46.4 17.6 1.6 -11.6549
191 2 48 16 0 -9.69662
192 2 49.6 17.6 1.6 -9.75289
193 2 0 19.2 0 -9.72534
194 1 1.6 20.8 1.6 -11.7875
195 3 3.2 19.2 0 -11.1265
196 1 4.8 20.8 1.6 -11.7504
197 2 6.4 19.2 0 -9.67255
198 1 8 20.8 1.6 -11.5796
199 1 9.6 19.2 0 -11.693
200 3 11.2 20.8 1.6 -11.1646
201 1 12.8 19.2 0 -11.8417
202 3 14.4 20.8 1.6 -11.2429
203 1 16 19.2 0 -11.8417
204 3 17.6 20.8 1.6 -11.1648
205 1 19.2 19.2 0 -11.7511
206 2 20.8 20.8 1.6 -9.58231
207 1 22.4 19.2 0 -11.5234
208 1 24 20.8 1.6 -11.4865
209 2 25.6 19.2 0 -9.67186
210 1 27.2 20.8 1.6 -11.7522
211 3 28.8 19.2 0 -11.1898
212 1 30.4 20.8 1.6 -11.7223
213 2 32 19.2 0 -9.66349
214 1 33.6 20.8 1.6 -11.6105
215 1 35.2 19.2 0 -11.4621
216 1 36.8 20.8 1.6 -11.6309
217 2 38.4 19.2 0 -9.60314
218 1 40 20.8 1.6 -11.5867
219 3 41.6 19.2 0 -11.0784
220 1 43.2 20.8 1.6 -11.5594
221 2 44.8 19.2 0 -9.48804
222 1 46.4 20.8 1.6 -11.4619
223 1 48 19.2 0 -11.483
224 2 49.6 20.8 1.6 -9.71716
225 2 0 22.4 0 -9.72795
226 1 1.6 24 1.6 -11.7293
227 3 3.2 22.4 0 -11.1681
228 1 4.8 24 1.6 -11.7205
229 2 6.4 22.4 0 -9.62892
230 1 8 24 1.6 -11.5996
231 1 9.6 22.4 0 -11.6369
232 3 11.2 24 1.6 -11.2415
233 1 12.8 22.4 0 -11.812
234 3 14.4 24 1.6 -11.1245
235 1 16 22.4 0 -11.7511
236 2 17.6 24 1.6 -9.64793
237 1 19.2 22.4 0 -11.7208
238 2 20.8 24 1.6 -9.54994
239 1 22.4 22.4 0 -11.5794
240 1 24 24 1.6 -11.4995
241 3 25.6 22.4 0 -11.1115
242 1 27.2 24 1.6 -11.7264
243 2 28.8 22.4 0 -9.74675
244 1 30.4 24 1.6 -11.7789
245 3 32 22.4 0 -11.1262
246 1 33.6 24 1.6 -11.8122
247 2 35.2 22.4 0 -9.57893
248 1 36.8 24 1.6 -11.7528
249 2 38.4 22.4 0 -9.61609
250 1 40 24 1.6 -11.6355
251 2 41.6 22.4 0 -9.57365
252 3 43.2 24 1.6 -11.1095
253 1 44.8 22.4 0 -11.5815
254 2 46.4 24 1.6 -9.65975
255 1 48 22.4 0 -11.586
256 2 49.6 24 1.6 -9.69443
257 2 0 25.6 0 -9.78622
259 3 3.2 25.6 0 -11.0835
261 2 6.4 25.6 0 -9.59878
263 2 9.6 25.6 0 -9.64374
265 1 12.8 25.6 0 -11.8136
267 1 16 25.6 0 -11.7511
269 1 19.2 25.6 0 -11.7511
271 1 22.4 25.6 0 -11.5882
273 2 25.6 25.6 0 -9.72634
275 2 28.8 25.6 0 -9.8063
277 3 32 25.6 0 -11.1642
279 3 35.2 25.6 0 -11.2045
281 3 38.4 25.6 0 -11.1258
283 2 41.6 25.6 0 -9.68089
285 1 44.8 25.6 0 -11.8131
287 1 48 25.6 0 -11.7289
258 1 1.6 27.2 1.6 -11.7002
289 2 0 28.8 0 -9.69471
260 1 4.8 27.2 1.6 -11.6604
291 2 3.2 28.8 0 -9.60047
262 2 8 27.2 1.6 -9.70791
293 1 6.4 28.8 0 -11.5164
264 3 11.2 27.2 1.6 -11.2402
295 1 9.6 28.8 0 -11.6233
266 3 14.4 27.2 1.6 -11.2426
297 1 12.8 28.8 0 -11.7808
268 3 17.6 27.2 1.6 -11.2042
299 1 16 28.8 0 -11.8417
270 3 20.8 27.2 1.6 -11.0822
301 1 19.2 28.8 0 -11.8417
272 1 24 27.2 1.6 -11.4244
303 1 22.4 28.8 0 -11.6208
305 2 25.6 28.8 0 -9.60113
274 1 27.2 27.2 1.6 -11.6482
307 3 28.8 28.8 0 -11.2028
276 1 30.4 27.2 1.6 -11.812
309 3 32 28.8 0 -11.2426
278 1 33.6 27.2 1.6 -11.8417
311 3 35.2 28.8 0 -11.2039
280 1 36.8 27.2 1.6 -11.8124
313 3 38.4 28.8 0 -11.1663
282 1 40 27.2 1.6 -11.5464
315 1 41.6 28.8 0 -11.6234
284 3 43.2 27.2 1.6 -11.1628
317 1 44.8 28.8 0 -11.8415
286 3 46.4 27.2 1.6 -11.1651
319 1 48 28.8 0 -11.759
288 2 49.6 27.2 1.6 -9.81308
290 1 1.6 30.4 1.6 -11.5296
321 1 0 32 0 -11.5911
292 1 4.8 30.4 1.6 -11.533
323 1 3.2 32 0 -11.5033
294 2 8 30.4 1.6 -9.70233
325 1 6.4 32 0 -11.4861
296 3 11.2 30.4 1.6 -11.2363
327 1 9.6 32 0 -11.7577
298 3 14.4 30.4 1.6 -11.2417
329 1 12.8 32 0 -11.812
300 3 17.6 30.4 1.6 -11.242
331 1 16 32 0 -11.8124
302 3 20.8 30.4 1.6 -11.0824
333 1 19.2 32 0 -11.7511
304 1 24 30.4 1.6 -11.3089
335 1 22.4 32 0 -11.5579
337 2 25.6 32 0 -9.53487
306 1 27.2 30.4 1.6 -11.5301
339 3 28.8 32 0 -11.1666
308 1 30.4 30.4 1.6 -11.8124
341 3 32 32 0 -11.2045
310 1 33.6 30.4 1.6 -11.8124
343 2 35.2 32 0 -9.72161
312 1 36.8 30.4 1.6 -11.7504
345 2 38.4 32 0 -9.70644
314 1 40 30.4 1.6 -11.4875
347 1 41.6 32 0 -11.6551
316 3 43.2 30.4 1.6 -11.1256
349 1 44.8 32 0 -11.8415
318 3 46.4 30.4 1.6 -11.2039
351 1 48 32 0 -11.7508
320 2 49.6 30.4 1.6 -9.72875
322 3 1.6 33.6 1.6 -11.112
353 1 0 35.2 0 -11.7827
324 1 4.8 33.6 1.6 -11.5343
355 1 3.2 35.2 0 -11.6798
326 2 8 33.6 1.6 -9.6691
357 1 6.4 35.2 0 -11.6053
328 3 11.2 33.6 1.6 -11.2751
359 1 9.6 35.2 0 -11.7172
330 3 14.4 33.6 1.6 -11.242
361 1 12.8 35.2 0 -11.8122
332 3 17.6 33.6 1.6 -11.1654
363 1 16 35.2 0 -11.7836
334 2 20.8 33.6 1.6 -9.55903
365 1 19.2 35.2 0 -11.6269
336 1 24 33.6 1.6 -11.4701
367 1 22.4 35.2 0 -11.5433
369 2 25.6 35.2 0 -9.7313
338 1 27.2 33.6 1.6 -11.6464
371 3 28.8 35.2 0 -11.2029
340 1 30.4 33.6 1.6 -11.8124
373 3 32 35.2 0 -11.1668
342 1 33.6 33.6 1.6 -11.7808
375 2 35.2 35.2 0 -9.66129
344 1 36.8 33.6 1.6 -11.7274
377 3 38.4 35.2 0 -11.1162
346 1 40 33.6 1.6 -11.5857
379 2 41.6 35.2 0 -9.72689
348 3 43.2 33.6 1.6 -11.1631
381 1 44.8 35.2 0 -11.731
350 3 46.4 33.6 1.6 -11.2051
383 1 48 35.2 0 -11.7528
352 3 49.6 33.6 1.6 -11.1657
354 2 1.6 36.8 1.6 -9.75183
385 1 0 38.4 0 -11.7508
356 2 4.8 36.8 1.6 -9.63859
387 1 3.2 38.4 0 -11.7203
358 2 8 36.8 1.6 -9.63382
389 1 6.4 38.4 0 -11.7179
360 3 11.2 36.8 1.6 -11.2057
391 1 9.6 38.4 0 -11.7811
362 3 14.4 36.8 1.6 -11.2387
393 1 12.8 38.4 0 -11.8181
364 3 17.6 36.8 1.6 -11.1921
395 2 16 38.4 0 -9.70261
366 1 20.8 36.8 1.6 -11.6173
397 2 19.2 38.4 0 -9.76268
368 1 24 36.8 1.6 -11.6845
399 3 22.4 38.4 0 -11.1916
401 3 25.6 38.4 0 -11.1965
370 1 27.2 36.8 1.6 -11.8178
403 2 28.8 38.4 0 -9.72262
372 1 30.4 36.8 1.6 -11.7844
405 3 32 38.4 0 -10.9964
374 1 33.6 36.8 1.6 -11.7208
407 2 35.2 38.4 0 -9.64841
376 1 36.8 36.8 1.6 -11.7242
409 3 38.4 38.4 0 -11.1262
378 1 40 36.8 1.6 -11.7192
411 2 41.6 38.4 0 -9.72233
380 1 43.2 36.8 1.6 -11.6781
413 2 44.8 38.4 0 -9.60773
382 2 46.4 36.8 1.6 -9.67003
415 1 48 38.4 0 -11.6389
384 3 49.6 36.8 1.6 -11.126
386 2 1.6 40 1.6 -9.57906
417 1 0 41.6 0 -11.7836
388 3 4.8 40 1.6 -11.1266
419 1 3.2 41.6 0 -11.8124
390 3 8 40 1.6 -11.0824
421 1 6.4 41.6 0 -11.8417
392 3 11.2 40 1.6 -11.1651
423 1 9.6 41.6 0 -11.8417
394 2 14.4 40 1.6 -9.72237
425 1 12.8 41.6 0 -11.8122
396 1 17.6 40 1.6 -11.4795
427 1 16 41.6 0 -11.5712
398 1 20.8 40 1.6 -11.5555
429 2 19.2 41.6 0 -9.52001
400 1 24 40 1.6 -11.674
431 3 22.4 41.6 0 -11.0384
433 3 25.6 41.6 0 -11.1678
402 1 27.2 40 1.6 -11.7828
435 3 28.8 41.6 0 -11.1657
404 1 30.4 40 1.6 -11.7846
437 3 32 41.6 0 -11.2057
406 1 33.6 40 1.6 -11.7511
439 3 35.2 41.6 0 -11.2045
408 1 36.8 40 1.6 -11.7811
441 3 38.4 41.6 0 -11.2426
410 1 40 40 1.6 -11.8124
443 3 41.6 41.6 0 -11.1663
412 1 43.2 40 1.6 -11.7197
445 3 44.8 41.6 0 -11.0821
414 1 46.4 40 1.6 -11.5004
447 2 48 41.6 0 -9.71107
416 2 49.6 40 1.6 -9.63096
418 3 1.6 43.2 1.6 -11.0381
449 1 0 44.8 0 -11.8137
420 3 4.8 43.2 1.6 -11.125
451 1 3.2 44.8 0 -11.8417
422 3 8 43.2 1.6 -11.125
453 1 6.4 44.8 0 -11.8124
424 3 11.2 43.2 1.6 -11.2048
455 1 9.6 44.8 0 -11.8124
426 3 14.4 43.2 1.6 -11.0813
457 1 12.8 44.8 0 -11.8417
428 1 17.6 43.2 1.6 -11.3956
459 1 16 44.8 0 -11.7196
430 1 20.8 43.2 1.6 -11.4583
461 2 19.2 44.8 0 -9.71501
432 1 24 43.2 1.6 -11.5882
463 2 22.4 44.8 0 -9.6647
465 3 25.6 44.8 0 -11.1666
434 1 27.2 43.2 1.6 -11.7808
467 3 28.8 44.8 0 -11.2042
436 1 30.4 43.2 1.6 -11.8124
469 3 32 44.8 0 -11.2042
438 1 33.6 43.2 1.6 -11.8124
471 3 35.2 44.8 0 -11.2036
440 1 36.8 43.2 1.6 -11.8417
473 3 38.4 44.8 0 -11.2426
442 1 40 43.2 1.6 -11.8417
475 3 41.6 44.8 0 -11.1238
444 1 43.2 43.2 1.6 -11.8122
477 3 44.8 44.8 0 -11.2361
446 1 46.4 43.2 1.6 -11.7188
479 2 48 44.8 0 -9.89177
448 2 49.6 43.2 1.6 -9.72614
450 3 1.6 46.4 1.6 -11.2065
481 1 0 48 0 -11.7493
452 3 4.8 46.4 1.6 -11.2051
483 1 3.2 48 0 -11.8417
454 3 8 46.4 1.6 -11.1661
485 1 6.4 48 0 -11.8124
456 3 11.2 46.4 1.6 -11.2423
487 1 9.6 48 0 -11.8124
458 3 14.4 46.4 1.6 -11.2048
489 1 12.8 48 0 -11.8417
460 2 17.6 46.4 1.6 -9.65856
491 1 16 48 0 -11.8122
462 2 20.8 46.4 1.6 -9.60248
493 1 19.2 48 0 -11.7245
464 1 24 46.4 1.6 -11.585
495 1 22.4 48 0 -11.5471
497 3 25.6 48 0 -11.1646
466 1 27.2 46.4 1.6 -11.7806
499 3 28.8 48 0 -11.2423
468 1 30.4 46.4 1.6 -11.8124
501 3 32 48 0 -11.2417
470 1 33.6 46.4 1.6 -11.8124
503 3 35.2 48 0 -11.2417
472 1 36.8 46.4 1.6 -11.8417
505 3 38.4 48 0 -11.2417
474 1 40 46.4 1.6 -11.8417
507 3 41.6 48 0 -11.2051
476 1 43.2 46.4 1.6 -11.8415
509 3 44.8 48 0 -11.1656
478 1 46.4 46.4 1.6 -11.8188
511 2 48 48 0 -9.71486
480 2 49.6 46.4 1.6 -9.71869
482 3 1.6 49.6 1.6 -11.0834
484 3 4.8 49.6 1.6 -11.2045
486 3 8 49.6 1.6 -11.2429
488 3 11.2 49.6 1.6 -11.2039
490 3 14.4 49.6 1.6 -11.2042
492 3 17.6 49.6 1.6 -11.1654
494 2 20.8 49.6 1.6 -9.64647
496 2 24 49.6 1.6 -9.6376
498 1 27.2 49.6 1.6 -11.8421
500 1 30.4 49.6 1.6 -11.8417
502 1 33.6 49.6 1.6 -11.8417
504 1 36.8 49.6 1.6 -11.8417
506 1 40 49.6 1.6 -11.8417
508 1 43.2 49.6 1.6 -11.8417
510 1 46.4 49.6 1.6 -11.6433
512 1 49.6 49.6 1.6 -11.5386
513 2 0 0 3.2 -9.65389
514 3 1.6 1.6 4.8 -11.1376
515 1 3.2 0 3.2 -11.8095
516 3 4.8 1.6 4.8 -11.2703
517 1 6.4 0 3.2 -11.812
518 3 8 1.6 4.8 -11.2426
519 1 9.6 0 3.2 -11.8124
520 3 11.2 1.6 4.8 -11.2036
521 1 12.8 0 3.2 -11.7831
522 3 14.4 1.6 4.8 -11.1639
523 1 16 0 3.2 -11.7846
524 2 17.6 1.6 4.8 -9.73511
525 1 19.2 0 3.2 -11.7831
526 3 20.8 1.6 4.8 -11.0864
527 1 22.4 0 3.2 -11.6171
528 1 24 1.6 4.8 -11.5618
529 3 25.6 0 3.2 -11.191
530 1 27.2 1.6 4.8 -11.8139
531 3 28.8 0 3.2 -11.2042
532 1 30.4 1.6 4.8 -11.7841
533 3 32 0 3.2 -11.2426
534 1 33.6 1.6 4.8 -11.7844
535 3 35.2 0 3.2 -11.2033
536 1 36.8 1.6 4.8 -11.8124
537 3 38.4 0 3.2 -11.242
538 1 40 1.6 4.8 -11.8124
539 3 41.6 0 3.2 -11.2033
540 1 43.2 1.6 4.8 -11.8124
541 3 44.8 0 3.2 -11.2051
542 1 46.4 1.6 4.8 -11.7503
543 2 48 0 3.2 -9.62796
544 1 49.6 1.6 4.8 -11.6493
545 2 0 3.2 3.2 -9.7881
546 2 1.6 4.8 4.8 -9.70011
547 2 3.2 3.2 3.2 -9.69791
548 2 4.8 4.8 4.8 -9.68923
549 1 6.4 3.2 3.2 -11.8144
550 3 8 4.8 4.8 -11.1648
551 1 9.6 3.2 3.2 -11.8124
552 3 11.2 4.8 4.8 -11.242
553 1 12.8 3.2 3.2 -11.8124
554 3 14.4 4.8 4.8 -11.2417
555 1 16 3.2 3.2 -11.8124
556 3 17.6 4.8 4.8 -11.2042
557 1 19.2 3.2 3.2 -11.8124
558 3 20.8 4.8 4.8 -11.1264
559 1 22.4 3.2 3.2 -11.5801
560 1 24 4.8 4.8 -11.546
561 3 25.6 3.2 3.2 -11.1625
562 1 27.2 4.8 4.8 -11.8118
563 3 28.8 3.2 3.2 -11.2426
564 1 30.4 4.8 4.8 -11.7842
565 3 32 3.2 3.2 -11.1245
566 1 33.6 4.8 4.8 -11.6911
567 2 35.2 3.2 3.2 -9.73544
568 1 36.8 4.8 4.8 -11.7844
569 3 38.4 3.2 3.2 -11.1652
570 1 40 4.8 4.8 -11.7811
571 2 41.6 3.2 3.2 -9.70671
572 1 43.2 4.8 4.8 -11.7811
573 3 44.8 3.2 3.2 -11.2051
574 1 46.4 4.8 4.8 -11.6751
575 3 48 3.2 3.2 -11.1255
576 3 49.6 4.8 4.8 -11.0778
577 2 0 6.4 3.2 -9.73071
578 1 1.6 8 4.8 -11.6075
579 1 3.2 6.4 3.2 -11.501
580 2 4.8 8 4.8 -9.56241
581 1 6.4 6.4 3.2 -11.6247
582 2 8 8 4.8 -9.67747
583 1 9.6 6.4 3.2 -11.7808
584 3 11.2 8 4.8 -11.2036
585 1 12.8 6.4 3.2 -11.8417
586 3 14.4 8 4.8 -11.2417
587 1 16 6.4 3.2 -11.8417
588 3 17.6 8 4.8 -11.2389
589 1 19.2 6.4 3.2 -11.812
590 2 20.8 8 4.8 -9.73412
591 1 22.4 6.4 3.2 -11.5657
592 1 24 8 4.8 -11.6071
593 2 25.6 6.4 3.2 -9.6627
594 1 27.2 8 4.8 -11.7517
595 3 28.8 6.4 3.2 -11.2371
596 2 30.4 8 4.8 -9.70615
597 3 32 6.4 3.2 -11.1635
598 1 33.6 8 4.8 -11.5338
599 3 35.2 6.4 3.2 -11.0815
600 1 36.8 8 4.8 -11.6461
601 3 38.4 6.4 3.2 -11.1663
602 1 40 8 4.8 -11.7846
603 2 41.6 6.4 3.2 -9.67676
604 1 43.2 8 4.8 -11.8124
605 3 44.8 6.4 3.2 -11.0852
606 1 46.4 8 4.8 -11.5519
607 1 48 6.4 3.2 -11.501
608 2 49.6 8 4.8 -9.69149
609 3 0 9.6 3.2 -11.1896
610 1 1.6 11.2 4.8 -11.7308
611 2 3.2 9.6 3.2 -9.70108
612 2 4.8 11.2 4.8 -9.69441
613 1 6.4 9.6 3.2 -11.6289
614 3 8 11.2 4.8 -11.0838
615 1 9.6 9.6 3.2 -11.7811
616 3 11.2 11.2 4.8 -11.2423
617 1 12.8 9.6 3.2 -11.8417
618 3 14.4 11.2 4.8 -11.242
619 1 16 9.6 3.2 -11.8415
620 3 17.6 11.2 4.8 -11.1992
621 1 19.2 9.6 3.2 -11.8141
622 2 20.8 11.2 4.8 -9.76885
623 1 22.4 9.6 3.2 -11.6698
624 1 24 11.2 4.8 -11.6944
625 2 25.6 9.6 3.2 -9.6391
626 1 27.2 11.2 4.8 -11.6964
627 2 28.8 9.6 3.2 -9.73287
628 2 30.4 11.2 4.8 -9.79097
629 1 32 9.6 3.2 -11.6356
630 3 33.6 11.2 4.8 -10.9921
631 1 35.2 9.6 3.2 -11.5529
632 1 36.8 11.2 4.8 -11.5681
633 2 38.4 9.6 3.2 -9.66202
634 1 40 11.2 4.8 -11.7528
635 3 41.6 9.6 3.2 -11.1648
636 1 43.2 11.2 4.8 -11.8124
637 3 44.8 9.6 3.2 -11.2057
638 1 46.4 11.2 4.8 -11.7268
639 2 48 9.6 3.2 -9.66683
640 2 49.6 11.2 4.8 -9.73374
641 2 0 12.8 3.2 -9.69016
642 1 1.6 14.4 4.8 -11.7504
643 2 3.2 12.8 3.2 -9.73242
644 1 4.8 14.4 4.8 -11.6668
645 1 6.4 12.8 3.2 -11.6307
646 2 8 14.4 4.8 -9.73
647 1 9.6 12.8 3.2 -11.7807
648 3 11.2 14.4 4.8 -11.2045
649 1 12.8 12.8 3.2 -11.8417
650 3 14.4 14.4 4.8 -11.1639
651 1 16 12.8 3.2 -11.8124
652 2 17.6 14.4 4.8 -9.7497
653 1 19.2 12.8 3.2 -11.7576
654 2 20.8 14.4 4.8 -9.75994
655 2 22.4 12.8 3.2 -9.79511
656 1 24 14.4 4.8 -11.7347
657 2 25.6 12.8 3.2 -9.69649
658 1 27.2 14.4 4.8 -11.7249
659 2 28.8 12.8 3.2 -9.70067
660 2 30.4 14.4 4.8 -9.74618
661 1 32 12.8 3.2 -11.721
662 3 33.6 14.4 4.8 -11.0678
663 1 35.2 12.8 3.2 -11.6479
664 1 36.8 14.4 4.8 -11.5906
665 2 38.4 12.8 3.2 -9.73051
666 1 40 14.4 4.8 -11.7527
667 3 41.6 12.8 3.2 -11.1648
668 1 43.2 14.4 4.8 -11.7846
669 3 44.8 12.8 3.2 -11.2045
670 1 46.4 14.4 4.8 -11.7528
671 2 48 12.8 3.2 -9.71868
672 1 49.6 14.4 4.8 -11.7607
673 3 0 16 3.2 -11.2723
674 1 1.6 17.6 4.8 -11.8415
675 3 3.2 16 3.2 -11.206
676 1 4.8 17.6 4.8 -11.7875
677 3 6.4 16 3.2 -11.0973
678 2 8 17.6 4.8 -9.75055
679 1 9.6 16 3.2 -11.7772
680 3 11.2 17.6 4.8 -11.1254
681 1 12.8 16 3.2 -11.8124
682 2 14.4 17.6 4.8 -9.73522
683 1 16 16 3.2 -11.7844
684 3 17.6 17.6 4.8 -11.1996
685 1 19.2 16 3.2 -11.7639
686 2 20.8 17.6 4.8 -9.75703
687 2 22.4 16 3.2 -9.69553
688 1 24 17.6 4.8 -11.5603
689 2 25.6 16 3.2 -9.62932
690 1 27.2 17.6 4.8 -11.7528
691 2 28.8 16 3.2 -9.63056
692 1 30.4 17.6 4.8 -11.6552
693 1 32 16 3.2 -11.4316
694 1 33.6 17.6 4.8 -11.5496
695 1 35.2 16 3.2 -11.5438
696 1 36.8 17.6 4.8 -11.6595
697 2 38.4 16 3.2 -9.67176
698 1 40 17.6 4.8 -11.7508
699 3 41.6 16 3.2 -11.1246
700 1 43.2 17.6 4.8 -11.7205
701 3 44.8 16 3.2 -11.166
702 1 46.4 17.6 4.8 -11.6911
703 3 48 16 3.2 -11.1595
704 1 49.6 17.6 4.8 -11.8134
705 3 0 19.2 3.2 -11.2662
706 1 1.6 20.8 4.8 -11.7808
707 3 3.2 19.2 3.2 -11.2045
708 1 4.8 20.8 4.8 -11.7504
709 2 6.4 19.2 3.2 -9.72851
710 1 8 20.8 4.8 -11.5514
711 1 9.6 19.2 3.2 -11.6374
712 2 11.2 20.8 4.8 -9.69332
713 1 12.8 19.2 3.2 -11.7844
714 3 14.4 20.8 4.8 -11.1245
715 1 16 19.2 3.2 -11.8124
716 3 17.6 20.8 4.8 -11.2051
717 1 19.2 19.2 3.2 -11.7504
718 3 20.8 20.8 4.8 -10.9939
719 1 22.4 19.2 3.2 -11.4607
720 1 24 20.8 4.8 -11.4888
721 3 25.6 19.2 3.2 -10.9944
722 1 27.2 20.8 4.8 -11.7197
723 3 28.8 19.2 3.2 -11.1268
724 1 30.4 20.8 4.8 -11.7545
725 2 32 19.2 3.2 -9.54525
726 1 33.6 20.8 4.8 -11.7508
727 2 35.2 19.2 3.2 -9.55918
728 1 36.8 20.8 4.8 -11.7525
729 2 38.4 19.2 3.2 -9.69221
730 1 40 20.8 4.8 -11.5903
731 2 41.6 19.2 3.2 -9.58182
732 1 43.2 20.8 4.8 -11.5667
733 2 44.8 19.2 3.2 -9.58332
734 1 46.4 20.8 4.8 -11.6284
735 2 48 19.2 3.2 -9.65759
736 1 49.6 20.8 4.8 -11.6539
737 2 0 22.4 3.2 -9.69599
738 1 1.6 24 4.8 -11.6909
739 3 3.2 22.4 3.2 -11.166
740 1 4.8 24 4.8 -11.6103
741 3 6.4 22.4 3.2 -11.0424
742 1 8 24 4.8 -11.4905
743 2 9.6 22.4 3.2 -9.59264
744 2 11.2 24 4.8 -9.63004
745 1 12.8 22.4 3.2 -11.7839
746 2 14.4 24 4.8 -9.64781
747 1 16 22.4 3.2 -11.7511
748 2 17.6 24 4.8 -9.64768
749 1 19.2 22.4 3.2 -11.6897
750 2 20.8 24 4.8 -9.64852
751 1 22.4 22.4 3.2 -11.488
752 2 24 24 4.8 -9.63593
753 3 25.6 22.4 3.2 -11.0858
754 1 27.2 24 4.8 -11.7036
755 2 28.8 22.4 3.2 -9.74869
756 2 30.4 24 4.8 -9.76483
757 3 32 22.4 3.2 -11.2368
758 1 33.6 24 4.8 -11.7814
759 3 35.2 22.4 3.2 -11.166
760 1 36.8 24 4.8 -11.8181
761 3 38.4 22.4 3.2 -11.0358
762 2 40 24 4.8 -9.62416
763 1 41.6 22.4 3.2 -11.4809
764 2 43.2 24 4.8 -9.73527
765 2 44.8 22.4 3.2 -9.59205
766 2 46.4 24 4.8 -9.72529
767 1 48 22.4 3.2 -11.4936
768 1 49.6 24 4.8 -11.6304
769 2 0 25.6 3.2 -9.75984
771 2 3.2 25.6 3.2 -9.64852
773 2 6.4 25.6 3.2 -9.6362
775 1 9.6 25.6 3.2 -11.6714
777 1 12.8 25.6 3.2 -11.7806
779 1 16 25.6 3.2 -11.7511
781 1 19.2 25.6 3.2 -11.7187
783 1 22.4 25.6 3.2 -11.5874
785 2 25.6 25.6 3.2 -9.60406
787 3 28.8 25.6 3.2 -11.1598
789 3 32 25.6 3.2 -11.2016
791 3 35.2 25.6 3.2 -11.2045
793 2 38.4 25.6 3.2 -9.72263
795 1 41.6 25.6 3.2 -11.5738
797 1 44.8 25.6 3.2 -11.7912
799 1 48 25.6 3.2 -11.6961
770 1 1.6 27.2 4.8 -11.7085
801 2 0 28.8 3.2 -9.77262
772 1 4.8 27.2 4.8 -11.6716
803 3 3.2 28.8 3.2 -11.0419
774 2 8 27.2 4.8 -9.63769
805 3 6.4 28.8 3.2 -11.1117
776 3 11.2 27.2 4.8 -11.1252
807 1 9.6 28.8 3.2 -11.7512
778 3 14.4 27.2 4.8 -11.2045
809 1 12.8 28.8 3.2 -11.8415
780 3 17.6 27.2 4.8 -11.2042
811 1 16 28.8 3.2 -11.8417
782 3 20.8 27.2 4.8 -11.2054
813 1 19.2 28.8 3.2 -11.8417
784 3 24 27.2 4.8 -10.9959
815 1 22.4 28.8 3.2 -11.597
817 1 25.6 28.8 3.2 -11.3584
786 1 27.2 27.2 4.8 -11.5666
819 3 28.8 28.8 3.2 -11.0389
788 1 30.4 27.2 4.8 -11.6836
821 3 32 28.8 3.2 -11.2048
790 1 33.6 27.2 4.8 -11.7093
823 3 35.2 28.8 3.2 -11.2426
792 1 36.8 27.2 4.8 -11.8122
825 3 38.4 28.8 3.2 -11.0401
794 1 40 27.2 4.8 -11.5568
827 1 41.6 28.8 3.2 -11.4749
796 2 43.2 27.2 4.8 -9.66495
829 1 44.8 28.8 3.2 -11.8122
798 3 46.4 27.2 4.8 -11.1971
831 1 48 28.8 3.2 -11.8136
800 3 49.6 27.2 4.8 -11.2395
802 1 1.6 30.4 4.8 -11.6398
833 1 0 32 3.2 -11.6665
804 1 4.8 30.4 4.8 -11.655
835 2 3.2 32 3.2 -9.66978
806 1 8 30.4 4.8 -11.6163
837 2 6.4 32 3.2 -9.66745
808 3 11.2 30.4 4.8 -11.2027
839 2 9.6 32 3.2 -9.7133
810 3 14.4 30.4 4.8 -11.2414
841 1 12.8 32 3.2 -11.8681
812 3 17.6 30.4 4.8 -11.2417
843 1 16 32 3.2 -11.8417
814 3 20.8 30.4 4.8 -11.1654
845 1 19.2 32 3.2 -11.7808
816 2 24 30.4 4.8 -9.50647
847 1 22.4 32 3.2 -11.5481
849 1 25.6 32 3.2 -11.3137
818 1 27.2 30.4 4.8 -11.3488
851 2 28.8 32 3.2 -9.54396
820 1 30.4 30.4 4.8 -11.6918
853 3 32 32 3.2 -11.2048
822 1 33.6 30.4 4.8 -11.8122
855 3 35.2 32 3.2 -11.1645
824 1 36.8 30.4 4.8 -11.8124
857 2 38.4 32 3.2 -9.57919
826 1 40 30.4 4.8 -11.5483
859 1 41.6 32 3.2 -11.5541
828 3 43.2 30.4 4.8 -11.1235
861 1 44.8 32 3.2 -11.8413
830 3 46.4 30.4 4.8 -11.2435
863 1 48 32 3.2 -11.8122
832 3 49.6 30.4 4.8 -11.2325
834 2 1.6 33.6 4.8 -9.80871
865 1 0 35.2 3.2 -11.8037
836 1 4.8 33.6 4.8 -11.6977
867 3 3.2 35.2 3.2 -11.1621
838 1 8 33.6 4.8 -11.4868
869 2 6.4 35.2 3.2 -9.60486
840 3 11.2 33.6 4.8 -11.1618
871 1 9.6 35.2 3.2 -11.6568
842 3 14.4 33.6 4.8 -11.2417
873 1 12.8 35.2 3.2 -11.8415
844 3 17.6 33.6 4.8 -11.2042
875 1 16 35.2 3.2 -11.8413
846 2 20.8 33.6 4.8 -9.69189
877 1 19.2 35.2 3.2 -11.7314
848 2 24 33.6 4.8 -9.53174
879 2 22.4 35.2 3.2 -9.60876
881 3 25.6 35.2 3.2 -10.9979
850 1 27.2 33.6 4.8 -11.4987
883 3 28.8 35.2 3.2 -11.1674
852 1 30.4 33.6 4.8 -11.6742
885 3 32 35.2 3.2 -11.2045
854 1 33.6 33.6 4.8 -11.8417
887 3 35.2 35.2 3.2 -11.1235
856 1 36.8 33.6 4.8 -11.7811
889 2 38.4 35.2 3.2 -9.67758
858 1 40 33.6 4.8 -11.6504
891 2 41.6 35.2 3.2 -9.72576
860 3 43.2 33.6 4.8 -11.1934
893 1 44.8 35.2 3.2 -11.7566
862 3 46.4 33.6 4.8 -11.2057
895 1 48 35.2 3.2 -11.812
864 3 49.6 33.6 4.8 -11.2054
866 2 1.6 36.8 4.8 -9.69586
897 1 0 38.4 3.2 -11.58
868 1 4.8 36.8 4.8 -11.6445
899 1 3.2 38.4 3.2 -11.5967
870 1 8 36.8 4.8 -11.3898
901 1 6.4 38.4 3.2 -11.5678
872 3 11.2 36.8 4.8 -11.0384
903 1 9.6 38.4 3.2 -11.5637
874 3 14.4 36.8 4.8 -11.2423
905 1 12.8 38.4 3.2 -11.7844
876 3 17.6 36.8 4.8 -11.2753
907 1 16 38.4 3.2 -11.7846
878 2 20.8 36.8 4.8 -9.70157
909 2 19.2 38.4 3.2 -9.71196
880 1 24 36.8 4.8 -11.619
911 2 22.4 38.4 3.2 -9.63666
913 3 25.6 38.4 3.2 -11.1683
882 1 27.2 36.8 4.8 -11.7253
915 3 28.8 38.4 3.2 -11.1245
884 1 30.4 36.8 4.8 -11.7528
917 2 32 38.4 3.2 -9.70694
886 1 33.6 36.8 4.8 -11.7811
919 2 35.2 38.4 3.2 -9.67688
888 1 36.8 36.8 4.8 -11.7846
921 3 38.4 38.4 3.2 -11.1645
890 1 40 36.8 4.8 -11.7834
923 3 41.6 38.4 3.2 -11.1997
892 2 43.2 36.8 4.8 -9.79761
925 2 44.8 38.4 3.2 -9.69715
894 3 46.4 36.8 4.8 -11.154
927 1 48 38.4 3.2 -11.6174
896 3 49.6 36.8 4.8 -11.2016
898 1 1.6 40 4.8 -11.4626
929 1 0 41.6 3.2 -11.4844
900 2 4.8 40 4.8 -9.59234
931 1 3.2 41.6 3.2 -11.5173
902 1 8 40 4.8 -11.4633
933 1 6.4 41.6 3.2 -11.5814
904 2 11.2 40 4.8 -9.66242
935 1 9.6 41.6 3.2 -11.621
906 3 14.4 40 4.8 -11.1651
937 1 12.8 41.6 3.2 -11.7528
908 3 17.6 40 4.8 -11.1643
939 1 16 41.6 3.2 -11.5965
910 2 20.8 40 4.8 -9.66486
941 1 19.2 41.6 3.2 -11.4895
912 1 24 40 4.8 -11.5274
943 1 22.4 41.6 3.2 -11.441
945 2 25.6 41.6 3.2 -9.59614
914 1 27.2 40 4.8 -11.6904
947 3 28.8 41.6 3.2 -11.1663
916 1 30.4 40 4.8 -11.7528
949 3 32 41.6 3.2 -11.1655
918 1 33.6 40 4.8 -11.7811
951 3 35.2 41.6 3.2 -11.2042
920 1 36.8 40 4.8 -11.8124
953 3 38.4 41.6 3.2 -11.2417
922 1 40 40 4.8 -11.8415
955 3 41.6 41.6 3.2 -11.2039
924 1 43.2 40 4.8 -11.7834
957 2 44.8 41.6 3.2 -9.61392
926 1 46.4 40 4.8 -11.5869
959 1 48 41.6 3.2 -11.4463
928 2 49.6 40 4.8 -9.57258
930 1 1.6 43.2 4.8 -11.4807
961 1 0 44.8 3.2 -11.5972
932 1 4.8 43.2 4.8 -11.5044
963 1 3.2 44.8 3.2 -11.6504
934 1 8 43.2 4.8 -11.4367
965 1 6.4 44.8 3.2 -11.6205
936 2 11.2 43.2 4.8 -9.6619
967 1 9.6 44.8 3.2 -11.6744
938 3 14.4 43.2 4.8 -11.2054
969 1 12.8 44.8 3.2 -11.8124
940 3 17.6 43.2 4.8 -11.0819
971 1 16 44.8 3.2 -11.6819
942 3 20.8 43.2 4.8 -11.0395
973 1 19.2 44.8 3.2 -11.593
944 2 24 43.2 4.8 -9.53133
975 1 22.4 44.8 3.2 -11.538
977 2 25.6 44.8 3.2 -9.63745
946 1 27.2 43.2 4.8 -11.6087
979 3 28.8 44.8 3.2 -11.1257
948 1 30.4 43.2 4.8 -11.7528
981 2 32 44.8 3.2 -9.73511
950 1 33.6 43.2 4.8 -11.8124
983 3 35.2 44.8 3.2 -11.2033
952 1 36.8 43.2 4.8 -11.8417
985 3 38.4 44.8 3.2 -11.2414
954 1 40 43.2 4.8 -11.8417
987 3 41.6 44.8 3.2 -11.2417
956 1 43.2 43.2 4.8 -11.8124
989 3 44.8 44.8 3.2 -11.2048
958 1 46.4 43.2 4.8 -11.6744
991 3 48 44.8 3.2 -11.0753
960 1 49.6 43.2 4.8 -11.5681
962 3 1.6 46.4 4.8 -10.9923
993 1 0 48 3.2 -11.6675
964 2 4.8 46.4 4.8 -9.63903
995 1 3.2 48 3.2 -11.7803
966 2 8 46.4 4.8 -9.66231
997 1 6.4 48 3.2 -11.7508
968 3 11.2 46.4 4.8 -11.1654
999 1 9.6 48 3.2 -11.8124
970 3 14.4 46.4 4.8 -11.1642
1001 1 12.8 48 3.2 -11.8124
972 2 17.6 46.4 4.8 -9.70717
1003 1 16 48 3.2 -11.7532
974 3 20.8 46.4 4.8 -11.1271
1005 1 19.2 48 3.2 -11.7205
976 2 24 46.4 4.8 -9.64007
1007 1 22.4 48 3.2 -11.5693
1009 2 25.6 48 3.2 -9.73506
978 1 27.2 46.4 4.8 -11.6289
1011 3 28.8 48 3.2 -11.1651
980 1 30.4 46.4 4.8 -11.7532
1013 3 32 48 3.2 -11.2036
982 1 33.6 46.4 4.8 -11.8124
1015 3 35.2 48 3.2 -11.2417
984 1 36.8 46.4 4.8 -11.8417
1017 3 38.4 48 3.2 -11.2414
986 1 40 46.4 4.8 -11.8417
1019 3 41.6 48 3.2 -11.2414
988 1 43.2 46.4 4.8 -11.8417
1021 3 44.8 48 3.2 -11.2042
990 1 46.4 46.4 4.8 -11.7806
1023 2 48 48 3.2 -9.70526
992 1 49.6 46.4 4.8 -11.6127
994 3 1.6 49.6 4.8 -11.1964
996 2 4.8 49.6 4.8 -9.68996
998 3 8 49.6 4.8 -11.1651
1000 3 11.2 49.6 4.8 -11.2039
1002 2 14.4 49.6 4.8 -9.73522
1004 3 17.6 49.6 4.8 -11.1242
1006 3 20.8 49.6 4.8 -11.0819
1008 1 24 49.6 4.8 -11.5708
1010 1 27.2 49.6 4.8 -11.7287
1012 1 30.4 49.6 4.8 -11.7808
1014 1 33.6 49.6 4.8 -11.8417
1016 1 36.8 49.6 4.8 -11.8417
1018 1 40 49.6 4.8 -11.8417
1020 1 43.2 49.6 4.8 -11.8417
1022 1 46.4 49.6 4.8 -11.7601
1024 2 49.6 49.6 4.8 -9.6087
1025 1 0 0 6.4 -11.4924
1026 1 1.6 1.6 8 -11.5855
1027 2 3.2 0 6.4 -9.68133
1028 2 4.8 1.6 8 -9.67129
1029 1 6.4 0 6.4 -11.7194
1030 3 8 1.6 8 -11.2057
1031 1 9.6 0 6.4 -11.8417
1032 3 11.2 1.6 8 -11.242
1033 1 12.8 0 6.4 -11.8124
1034 3 14.4 1.6 8 -11.2045
1035 1 16 0 6.4 -11.7846
1036 3 17.6 1.6 8 -11.2048
1037 1 19.2 0 6.4 -11.8124
1038 3 20.8 1.6 8 -11.1258
1039 1 22.4 0 6.4 -11.6498
1040 2 24 1.6 8 -9.7533
1041 2 25.6 0 6.4 -9.78346
1042 2 27.2 1.6 8 -9.76093
1043 2 28.8 0 6.4 -9.72887
1044 1 30.4 1.6 8 -11.5201
1045 3 32 0 6.4 -11.1244
1046 1 33.6 1.6 8 -11.6859
1047 3 35.2 0 6.4 -11.2426
1048 1 36.8 1.6 8 -11.8122
1049 3 38.4 0 6.4 -11.2417
1050 1 40 1.6 8 -11.8124
1051 3 41.6 0 6.4 -11.2039
1052 1 43.2 1.6 8 -11.7811
1053 3 44.8 0 6.4 -11.1648
1054 1 46.4 1.6 8 -11.7532
1055 2 48 0 6.4 -9.62848
1056 1 49.6 1.6 8 -11.5608
1057 1 0 3.2 6.4 -11.4988
1058 1 1.6 4.8 8 -11.538
1059 1 3.2 3.2 6.4 -11.6169
1060 2 4.8 4.8 8 -9.60436
1061 1 6.4 3.2 6.4 -11.7501
1062 3 8 4.8 8 -11.2057
1063 1 9.6 3.2 6.4 -11.8417
1064 3 11.2 4.8 8 -11.242
1065 1 12.8 3.2 6.4 -11.8417
1066 3 14.4 4.8 8 -11.2045
1067 1 16 3.2 6.4 -11.8124
1068 3 17.6 4.8 8 -11.2034
1069 1 19.2 3.2 6.4 -11.7826
1070 2 20.8 4.8 8 -9.7022
1071 1 22.4 3.2 6.4 -11.5942
1072 1 24 4.8 8 -11.6955
1073 3 25.6 3.2 6.4 -11.2279
1074 1 27.2 4.8 8 -11.7839
1075 3 28.8 3.2 6.4 -11.2022
1076 2 30.4 4.8 8 -9.69255
1077 2 32 3.2 6.4 -9.70306
1078 2 33.6 4.8 8 -9.67577
1079 3 35.2 3.2 6.4 -11.1622
1080 1 36.8 4.8 8 -11.7201
1081 3 38.4 3.2 6.4 -11.2426
1082 1 40 4.8 8 -11.8417
1083 3 41.6 3.2 6.4 -11.2039
1084 1 43.2 4.8 8 -11.8417
1085 3 44.8 3.2 6.4 -11.2051
1086 1 46.4 4.8 8 -11.7091
1087 2 48 3.2 6.4 -9.63975
1088 1 49.6 4.8 8 -11.6597
1089 2 0 6.4 6.4 -9.63505
1090 1 1.6 8 8 -11.6292
1091 1 3.2 6.4 6.4 -11.521
1092 2 4.8 8 8 -9.60792
1093 1 6.4 6.4 6.4 -11.6889
1094 3 8 8 8 -11.084
1095 1 9.6 6.4 6.4 -11.8124
1096 3 11.2 8 8 -11.2048
1097 1 12.8 6.4 6.4 -11.8417
1098 3 14.4 8 8 -11.1657
1099 1 16 6.4 6.4 -11.812
1100 2 17.6 8 8 -9.73386
1101 1 19.2 6.4 6.4 -11.7685
1102 1 20.8 8 8 -11.7131