ITEM: TIMESTEP
0
ITEM: NUMBER OF ATOMS
8192
ITEM: BOX BOUNDS pp pp pp
0.0000000000000000e+00 5.1200000000000003e+01
0.0000000000000000e+00 5.1200000000000003e+01
0.0000000000000000e+00 5.1200000000000003e+01
ITEM: ATOMS id type x y z c_eng
1 1 0 0 0 -11.787
2 2 1.6 1.6 1.6 -9.6285
3 1 3.2 0 0 -11.7806
4 3 4.8 1.6 1.6 -11.2368
5 1 6.4 0 0 -11.8681
6 3 8 1.6 1.6 -11.2743
7 1 9.6 0 0 -11.8415
8 3 11.2 1.6 1.6 -11.242
9 1 12.8 0 0 -11.8417
10 3 14.4 1.6 1.6 -11.2414
11 1 16 0 0 -11.8417
12 3 17.6 1.6 1.6 -11.2033
13 1 19.2 0 0 -11.7842
14 2 20.8 1.6 1.6 -9.7076
15 1 22.4 0 0 -11.6701
16 2 24 1.6 1.6 -9.63623
17 1 25.6 0 0 -11.5518
18 1 27.2 1.6 1.6 -11.7194
19 3 28.8 0 0 -11.1235
20 1 30.4 1.6 1.6 -11.8417
21 3 32 0 0 -11.2414
22 1 33.6 1.6 1.6 -11.8417
23 3 35.2 0 0 -11.2417
24 1 36.8 1.6 1.6 -11.8417
25 3 38.4 0 0 -11.2045
26 1 40 1.6 1.6 -11.8417
27 3 41.6 0 0 -11.0376
28 1 43.2 1.6 1.6 -11.8178
29 2 44.8 0 0 -9.58385
30 2 46.4 1.6 1.6 -9.76793
31 1 48 0 0 -11.6583
32 2 49.6 1.6 1.6 -9.79853
33 2 0 3.2 0 -9.68804
34 1 1.6 4.8 1.6 -11.5257
35 1 3.2 3.2 0 -11.6004
36 2 4.8 4.8 1.6 -9.73284
37 2 6.4 3.2 0 -9.71346
38 2 8 4.8 1.6 -9.72847
39 1 9.6 3.2 0 -11.7152
40 3 11.2 4.8 1.6 -11.1238
41 1 12.8 3.2 0 -11.8124
42 3 14.4 4.8 1.6 -11.2039
43 1 16 3.2 0 -11.8417
44 3 17.6 4.8 1.6 -11.2423
45 1 19.2 3.2 0 -11.8124
46 3 20.8 4.8 1.6 -11.037
47 1 22.4 3.2 0 -11.6905
48 1 24 4.8 1.6 -11.4857
49 2 25.6 3.2 0 -9.67417
50 1 27.2 4.8 1.6 -11.6464
51 3 28.8 3.2 0 -11.206
52 1 30.4 4.8 1.6 -11.6749
53 3 32 3.2 0 -11.2042
54 1 33.6 4.8 1.6 -11.7096
55 3 35.2 3.2 0 -11.242
56 1 36.8 4.8 1.6 -11.8417
57 3 38.4 3.2 0 -11.2417
58 1 40 4.8 1.6 -11.8417
59 3 41.6 3.2 0 -11.2423
60 1 43.2 4.8 1.6 -11.7491
61 3 44.8 3.2 0 -11.2679
62 2 46.4 4.8 1.6 -9.72269
63 2 48 3.2 0 -9.64546
64 1 49.6 4.8 1.6 -11.5258
65 3 0 6.4 0 -11.1556
66 1 1.6 8 1.6 -11.6886
67 3 3.2 6.4 0 -11.0754
68 2 4.8 8 1.6 -9.8388
69 2 6.4 6.4 0 -9.72299
70 2 8 8 1.6 -9.69558
71 1 9.6 6.4 0 -11.5613
72 2 11.2 8 1.6 -9.67969
73 1 12.8 6.4 0 -11.7532
74 2 14.4 8 1.6 -9.7066
75 1 16 6.4 0 -11.8124
76 3 17.6 8 1.6 -11.2036
77 1 19.2 6.4 0 -11.8417
78 3 20.8 8 1.6 -11.1666
79 1 22.4 6.4 0 -11.6437
80 2 24 8 1.6 -9.53097
81 1 25.6 6.4 0 -11.4737
82 1 27.2 8 1.6 -11.5713
83 3 28.8 6.4 0 -10.996
84 1 30.4 8 1.6 -11.5166
85 2 32 6.4 0 -9.54409
86 1 33.6 8 1.6 -11.3653
87 3 35.2 6.4 0 -11.0384
88 1 36.8 8 1.6 -11.6781
89 3 38.4 6.4 0 -11.2426
90 1 40 8 1.6 -11.8415
91 3 41.6 6.4 0 -11.2423
92 1 43.2 8 1.6 -11.7964
93 3 44.8 6.4 0 -11.1986
94 3 46.4 8 1.6 -11.096
95 1 48 6.4 0 -11.568
96 2 49.6 8 1.6 -9.7431
97 2 0 9.6 0 -9.79812
98 1 1.6 11.2 1.6 -11.5165
99 2 3.2 9.6 0 -9.72198
100 3 4.8 11.2 1.6 -11.1435
101 2 6.4 9.6 0 -9.77569
102 3 8 11.2 1.6 -11.2407
103 1 9.6 9.6 0 -11.7053
104 3 11.2 11.2 1.6 -11.1648
105 1 12.8 9.6 0 -11.7528
106 3 14.4 11.2 1.6 -11.2039
107 1 16 9.6 0 -11.8124
108 3 17.6 11.2 1.6 -11.2429
109 1 19.2 9.6 0 -11.8417
110 3 20.8 11.2 1.6 -11.1257
111 1 22.4 9.6 0 -11.7174
112 2 24 11.2 1.6 -9.70196
113 1 25.6 9.6 0 -11.5969
114 2 27.2 11.2 1.6 -9.71383
115 2 28.8 9.6 0 -9.75138
116 3 30.4 11.2 1.6 -11.1169
117 1 32 9.6 0 -11.5541
118 3 33.6 11.2 1.6 -10.9469
119 1 35.2 9.6 0 -11.5134
120 2 36.8 11.2 1.6 -9.66906
121 3 38.4 9.6 0 -11.1629
122 1 40 11.2 1.6 -11.7148
123 3 41.6 9.6 0 -11.2045
124 1 43.2 11.2 1.6 -11.7804
125 3 44.8 9.6 0 -11.2
126 1 46.4 11.2 1.6 -11.6471
127 1 48 9.6 0 -11.5765
128 3 49.6 11.2 1.6 -11.1452
129 1 0 12.8 0 -11.5794
130 2 1.6 14.4 1.6 -9.58926
131 1 3.2 12.8 0 -11.4293
132 2 4.8 14.4 1.6 -9.64363
133 1 6.4 12.8 0 -11.6642
134 3 8 14.4 1.6 -11.2307
135 1 9.6 12.8 0 -11.7872
136 3 11.2 14.4 1.6 -11.2045
137 1 12.8 12.8 0 -11.8122
138 3 14.4 14.4 1.6 -11.2417
139 1 16 12.8 0 -11.8417
140 3 17.6 14.4 1.6 -11.1238
141 1 19.2 12.8 0 -11.7093
142 1 20.8 14.4 1.6 -11.4384
143 1 22.4 12.8 0 -11.5518
144 1 24 14.4 1.6 -11.5675
145 1 25.6 12.8 0 -11.567
146 1 27.2 14.4 1.6 -11.5718
147 1 28.8 12.8 0 -11.5831
148 1 30.4 14.4 1.6 -11.4666
149 1 32 12.8 0 -11.7085
150 3 33.6 14.4 1.6 -10.9955
151 1 35.2 12.8 0 -11.7499
152 2 36.8 14.4 1.6 -9.75728
153 1 38.4 12.8 0 -11.5385
154 1 40 14.4 1.6 -11.5521
155 2 41.6 12.8 0 -9.58613
156 1 43.2 14.4 1.6 -11.7007
157 2 44.8 12.8 0 -9.66335
158 2 46.4 14.4 1.6 -9.57095
159 1 48 12.8 0 -11.5616
160 2 49.6 14.4 1.6 -9.77149
161 1 0 16 0 -11.7099
162 2 1.6 17.6 1.6 -9.72501
163 1 3.2 16 0 -11.591
164 1 4.8 17.6 1.6 -11.6785
165 2 6.4 16 0 -9.73446
166 2 8 17.6 1.6 -9.74882
167 1 9.6 16 0 -11.8173
168 3 11.2 17.6 1.6 -11.2057
169 1 12.8 16 0 -11.8417
170 3 14.4 17.6 1.6 -11.2033
171 1 16 16 0 -11.8417
172 3 17.6 17.6 1.6 -11.2057
173 1 19.2 16 0 -11.674
174 2 20.8 17.6 1.6 -9.69656
175 1 22.4 16 0 -11.6041
176 1 24 17.6 1.6 -11.7554
177 2 25.6 16 0 -9.69019
178 1 27.2 17.6 1.6 -11.7876
179 2 28.8 16 0 -9.63475
180 1 30.4 17.6 1.6 -11.586
181 1 32 16 0 -11.5388
182 2 33.6 17.6 1.6 -9.63869
183 1 35.2 16 0 -11.7522
184 3 36.8 17.6 1.6 -11.0756
185 1 38.4 16 0 -11.5298
186 1 40 17.6 1.6 -11.6042
187 2 41.6 16 0 -9.65315
188 1 43.2 17.6 1.6 -11.6024
189 3 44.8 16 0 -11.0699
190 1 46.4 17.6 1.6 -11.475
191 1 48 16 0 -11.5723
192 3 49.6 17.6 1.6 -11.046
193 1 0 19.2 0 -11.6286
194 1 1.6 20.8 1.6 -11.6955
195 1 3.2 19.2 0 -11.5512
196 1 4.8 20.8 1.6 -11.6796
197 2 6.4 19.2 0 -9.69235
198 1 8 20.8 1.6 -11.6626
199 1 9.6 19.2 0 -11.7574
200 3 11.2 20.8 1.6 -11.1642
201 1 12.8 19.2 0 -11.8122
202 2 14.4 20.8 1.6 -9.70671
203 1 16 19.2 0 -11.8124
204 3 17.6 20.8 1.6 -11.1251
205 1 19.2 19.2 0 -11.8281
206 2 20.8 20.8 1.6 -9.8085
207 3 22.4 19.2 0 -11.2736
208 1 24 20.8 1.6 -11.7594
209 2 25.6 19.2 0 -9.84001
210 1 27.2 20.8 1.6 -11.7233
211 3 28.8 19.2 0 -11.121
212 1 30.4 20.8 1.6 -11.7226
213 2 32 19.2 0 -9.63788
214 1 33.6 20.8 1.6 -11.6649
215 1 35.2 19.2 0 -11.6291
216 2 36.8 20.8 1.6 -9.78009
217 1 38.4 19.2 0 -11.6132
218 1 40 20.8 1.6 -11.696
219 2 41.6 19.2 0 -9.69394
220 1 43.2 20.8 1.6 -11.4928
221 3 44.8 19.2 0 -10.9212
222 1 46.4 20.8 1.6 -11.3996
223 1 48 19.2 0 -11.4997
224 1 49.6 20.8 1.6 -11.5448
225 2 0 22.4 0 -9.75888
226 1 1.6 24 1.6 -11.8137
227 3 3.2 22.4 0 -11.0812
228 1 4.8 24 1.6 -11.8124
229 2 6.4 22.4 0 -9.72307
230 1 8 24 1.6 -11.5532
231 2 9.6 22.4 0 -9.66255
232 3 11.2 24 1.6 -10.9838
233 1 12.8 22.4 0 -11.8053
234 2 14.4 24 1.6 -9.66534
235 1 16 22.4 0 -11.7839
236 2 17.6 24 1.6 -9.69092
237 1 19.2 22.4 0 -11.7142
238 1 20.8 24 1.6 -11.4405
239 2 22.4 22.4 0 -9.81091
240 1 24 24 1.6 -11.6048
241 3 25.6 22.4 0 -11.2089
242 1 27.2 24 1.6 -11.7397
243 2 28.8 22.4 0 -9.77993
244 1 30.4 24 1.6 -11.7203
245 3 32 22.4 0 -11.1663
246 1 33.6 24 1.6 -11.8122
247 3 35.2 22.4 0 -11.2327
248 1 36.8 24 1.6 -11.8677
249 3 38.4 22.4 0 -11.1902
250 1 40 24 1.6 -11.6205
251 2 41.6 22.4 0 -9.67298
252 3 43.2 24 1.6 -11.0397
253 1 44.8 22.4 0 -11.6823
254 3 46.4 24 1.6 -11.0384
255 1 48 22.4 0 -11.6012
256 2 49.6 24 1.6 -9.74481
257 2 0 25.6 0 -9.83491
259 3 3.2 25.6 0 -11.1663
261 3 6.4 25.6 0 -10.9971
263 1 9.6 25.6 0 -11.4622
265 1 12.8 25.6 0 -11.5576
267 2 16 25.6 0 -9.69971
269 1 19.2 25.6 0 -11.7009
271 1 22.4 25.6 0 -11.5464
273 2 25.6 25.6 0 -9.71085
275 3 28.8 25.6 0 -11.1992
277 3 32 25.6 0 -11.2042
279 3 35.2 25.6 0 -11.2429
281 3 38.4 25.6 0 -11.2315
283 1 41.6 25.6 0 -11.7179
285 1 44.8 25.6 0 -11.8415
287 1 48 25.6 0 -11.787
258 1 1.6 27.2 1.6 -11.74
289 2 0 28.8 0 -9.77484
260 1 4.8 27.2 1.6 -11.6736
291 2 3.2 28.8 0 -9.73173
262 1 8 27.2 1.6 -11.5249
293 1 6.4 28.8 0 -11.5512
264 1 11.2 27.2 1.6 -11.4654
295 2 9.6 28.8 0 -9.64065
266 1 14.4 27.2 1.6 -11.5058
297 2 12.8 28.8 0 -9.62697
268 3 17.6 27.2 1.6 -11.1243
299 1 16 28.8 0 -11.7649
270 2 20.8 27.2 1.6 -9.51294
301 1 19.2 28.8 0 -11.7802
272 1 24 27.2 1.6 -11.4085
303 1 22.4 28.8 0 -11.6154
305 1 25.6 28.8 0 -11.488
274 1 27.2 27.2 1.6 -11.6453
307 3 28.8 28.8 0 -11.1653
276 1 30.4 27.2 1.6 -11.7811
309 3 32 28.8 0 -11.2426
278 1 33.6 27.2 1.6 -11.8124
311 3 35.2 28.8 0 -11.1651
280 1 36.8 27.2 1.6 -11.8137
313 2 38.4 28.8 0 -9.81728
282 2 40 27.2 1.6 -9.80378
315 1 41.6 28.8 0 -11.6899
284 3 43.2 27.2 1.6 -11.166
317 1 44.8 28.8 0 -11.8124
286 3 46.4 27.2 1.6 -11.2051
319 1 48 28.8 0 -11.7878
288 2 49.6 27.2 1.6 -9.7907
290 2 1.6 30.4 1.6 -9.7373
321 1 0 32 0 -11.7872
292 1 4.8 30.4 1.6 -11.6023
323 1 3.2 32 0 -11.6772
294 1 8 30.4 1.6 -11.6981
325 2 6.4 32 0 -9.62811
296 3 11.2 30.4 1.6 -11.2645
327 2 9.6 32 0 -9.78673
298 3 14.4 30.4 1.6 -11.2321
329 1 12.8 32 0 -11.753
300 3 17.6 30.4 1.6 -11.2054
331 1 16 32 0 -11.784
302 2 20.8 30.4 1.6 -9.72153
333 1 19.2 32 0 -11.7448
304 2 24 30.4 1.6 -9.50664
335 2 22.4 32 0 -9.63696
337 1 25.6 32 0 -11.4604
306 1 27.2 30.4 1.6 -11.6018
339 3 28.8 32 0 -11.1547
308 1 30.4 30.4 1.6 -11.812
341 3 32 32 0 -11.2054
310 1 33.6 30.4 1.6 -11.8417
343 3 35.2 32 0 -11.24
312 1 36.8 30.4 1.6 -11.7874
345 3 38.4 32 0 -11.171
314 2 40 30.4 1.6 -9.69805
347 1 41.6 32 0 -11.7105
316 3 43.2 30.4 1.6 -11.1265
349 1 44.8 32 0 -11.7846
318 3 46.4 30.4 1.6 -11.2048
351 1 48 32 0 -11.7844
320 3 49.6 30.4 1.6 -11.2031
322 3 1.6 33.6 1.6 -11.1927
353 1 0 35.2 0 -11.8119
324 1 4.8 33.6 1.6 -11.6248
355 1 3.2 35.2 0 -11.679
326 1 8 33.6 1.6 -11.6387
357 1 6.4 35.2 0 -11.6318
328 3 11.2 33.6 1.6 -11.1154
359 1 9.6 35.2 0 -11.7187
330 3 14.4 33.6 1.6 -11.2057
361 1 12.8 35.2 0 -11.7837
332 3 17.6 33.6 1.6 -11.1258
363 1 16 35.2 0 -11.7048
334 2 20.8 33.6 1.6 -9.63878
365 1 19.2 35.2 0 -11.4856
336 1 24 33.6 1.6 -11.4857
367 3 22.4 35.2 0 -11.0412
369 2 25.6 35.2 0 -9.6027
338 1 27.2 33.6 1.6 -11.5885
371 2 28.8 35.2 0 -9.75945
340 1 30.4 33.6 1.6 -11.7838
373 3 32 35.2 0 -11.1666
342 1 33.6 33.6 1.6 -11.8414
375 3 35.2 35.2 0 -11.1274
344 1 36.8 33.6 1.6 -11.8079
377 1 38.4 35.2 0 -11.5306
346 2 40 33.6 1.6 -9.69808
379 1 41.6 35.2 0 -11.4745
348 3 43.2 33.6 1.6 -11.0836
381 1 44.8 35.2 0 -11.5808
350 3 46.4 33.6 1.6 -11.2057
383 1 48 35.2 0 -11.7448
352 3 49.6 33.6 1.6 -11.2429
354 2 1.6 36.8 1.6 -9.72938
385 1 0 38.4 0 -11.7556
356 2 4.8 36.8 1.6 -9.69498
387 1 3.2 38.4 0 -11.7214
358 2 8 36.8 1.6 -9.67072
389 1 6.4 38.4 0 -11.7295
360 3 11.2 36.8 1.6 -11.0841
391 1 9.6 38.4 0 -11.7806
362 3 14.4 36.8 1.6 -11.3247
393 1 12.8 38.4 0 -11.8035
364 2 17.6 36.8 1.6 -9.78445
395 3 16 38.4 0 -11.2301
366 1 20.8 36.8 1.6 -11.6355
397 3 19.2 38.4 0 -11.0831
368 1 24 36.8 1.6 -11.6292
399 3 22.4 38.4 0 -11.1282
401 2 25.6 38.4 0 -9.57102
370 1 27.2 36.8 1.6 -11.688
403 3 28.8 38.4 0 -11.1266
372 1 30.4 36.8 1.6 -11.8375
405 3 32 38.4 0 -11.2032
374 1 33.6 36.8 1.6 -11.8413
407 3 35.2 38.4 0 -11.1228
376 1 36.8 36.8 1.6 -11.7087
409 2 38.4 38.4 0 -9.54423
378 1 40 36.8 1.6 -11.5523
411 3 41.6 38.4 0 -11.1537
380 1 43.2 36.8 1.6 -11.5838
413 3 44.8 38.4 0 -11.1124
382 3 46.4 36.8 1.6 -11.1737
415 2 48 38.4 0 -9.7187
384 3 49.6 36.8 1.6 -11.2295
386 3 1.6 40 1.6 -10.9952
417 1 0 41.6 0 -11.7442
388 2 4.8 40 1.6 -9.66229
419 1 3.2 41.6 0 -11.8124
390 2 8 40 1.6 -9.66229
421 1 6.4 41.6 0 -11.7808
392 3 11.2 40 1.6 -11.0398
423 1 9.6 41.6 0 -11.8124
394 2 14.4 40 1.6 -9.82791
425 1 12.8 41.6 0 -11.814
396 1 17.6 40 1.6 -11.749
427 2 16 41.6 0 -9.7677
398 1 20.8 40 1.6 -11.6899
429 2 19.2 41.6 0 -9.59668
400 1 24 40 1.6 -11.6859
431 3 22.4 41.6 0 -11.1681
433 2 25.6 41.6 0 -9.6778
402 1 27.2 40 1.6 -11.6811
435 3 28.8 41.6 0 -11.0813
404 1 30.4 40 1.6 -11.8413
437 3 32 41.6 0 -11.3032
406 1 33.6 40 1.6 -11.8421
439 2 35.2 41.6 0 -9.81734
408 1 36.8 40 1.6 -11.7841
441 3 38.4 41.6 0 -11.2618
410 1 40 40 1.6 -11.812
443 3 41.6 41.6 0 -11.2951
412 1 43.2 40 1.6 -11.8371
445 3 44.8 41.6 0 -11.1059
414 1 46.4 40 1.6 -11.6969
447 1 48 41.6 0 -11.615
416 1 49.6 40 1.6 -11.5969
418 3 1.6 43.2 1.6 -11.2065
449 1 0 44.8 0 -11.8121
420 3 4.8 43.2 1.6 -11.1654
451 1 3.2 44.8 0 -11.8417
422 3 8 43.2 1.6 -11.1654
453 1 6.4 44.8 0 -11.8417
424 3 11.2 43.2 1.6 -11.2063
455 1 9.6 44.8 0 -11.8417
426 3 14.4 43.2 1.6 -11.1911
457 1 12.8 44.8 0 -11.8415
428 2 17.6 43.2 1.6 -9.63017
459 1 16 44.8 0 -11.7497
430 1 20.8 43.2 1.6 -11.6347
461 1 19.2 44.8 0 -11.5899
432 1 24 43.2 1.6 -11.7843
463 3 22.4 44.8 0 -11.1605
465 3 25.6 44.8 0 -11.1254
434 1 27.2 43.2 1.6 -11.7844
467 3 28.8 44.8 0 -11.2438
436 1 30.4 43.2 1.6 -11.8415
469 3 32 44.8 0 -11.2389
438 1 33.6 43.2 1.6 -11.8141
471 2 35.2 44.8 0 -9.75862
440 1 36.8 43.2 1.6 -11.8141
473 3 38.4 44.8 0 -11.115
442 1 40 43.2 1.6 -11.7446
475 1 41.6 44.8 0 -11.4889
444 1 43.2 43.2 1.6 -11.6961
477 1 44.8 44.8 0 -11.5226
446 1 46.4 43.2 1.6 -11.6492
479 1 48 44.8 0 -11.6051
448 3 49.6 43.2 1.6 -11.0728
450 3 1.6 46.4 1.6 -11.1642
481 1 0 48 0 -11.8122
452 3 4.8 46.4 1.6 -11.242
483 1 3.2 48 0 -11.8417
454 3 8 46.4 1.6 -11.242
485 1 6.4 48 0 -11.8417
456 3 11.2 46.4 1.6 -11.2045
487 1 9.6 48 0 -11.8417
458 3 14.4 46.4 1.6 -11.1241
489 1 12.8 48 0 -11.8417
460 3 17.6 46.4 1.6 -11.1668
491 1 16 48 0 -11.8417
462 3 20.8 46.4 1.6 -11.1601
493 1 19.2 48 0 -11.7803
464 1 24 46.4 1.6 -11.6868
495 1 22.4 48 0 -11.6238
497 2 25.6 48 0 -9.59582
466 1 27.2 46.4 1.6 -11.7503
499 3 28.8 48 0 -11.1648
468 1 30.4 46.4 1.6 -11.8417
501 3 32 48 0 -11.2423
470 1 33.6 46.4 1.6 -11.8122
503 3 35.2 48 0 -11.2042
472 1 36.8 46.4 1.6 -11.8122
505 3 38.4 48 0 -11.1258
474 1 40 46.4 1.6 -11.6208
507 1 41.6 48 0 -11.3458
476 2 43.2 46.4 1.6 -9.55006
509 1 44.8 48 0 -11.3413
478 1 46.4 46.4 1.6 -11.5307
511 1 48 48 0 -11.5003
480 2 49.6 46.4 1.6 -9.78849
482 3 1.6 49.6 1.6 -11.2057
484 3 4.8 49.6 1.6 -11.2417
486 3 8 49.6 1.6 -11.2414
488 3 11.2 49.6 1.6 -11.2417
490 3 14.4 49.6 1.6 -11.2423
492 3 17.6 49.6 1.6 -11.2423
494 3 20.8 49.6 1.6 -11.1255
496 2 24 49.6 1.6 -9.53788
498 1 27.2 49.6 1.6 -11.6944
500 1 30.4 49.6 1.6 -11.8417
502 1 33.6 49.6 1.6 -11.8417
504 1 36.8 49.6 1.6 -11.8417
506 1 40 49.6 1.6 -11.7093
508 1 43.2 49.6 1.6 -11.6182
510 1 46.4 49.6 1.6 -11.5601
512 3 49.6 49.6 1.6 -11.1185
513 1 0 0 3.2 -11.6837
514 2 1.6 1.6 4.8 -9.55019
515 1 3.2 0 3.2 -11.7811
516 3 4.8 1.6 4.8 -11.1663
517 1 6.4 0 3.2 -11.8415
518 3 8 1.6 4.8 -11.2423
519 1 9.6 0 3.2 -11.8417
520 3 11.2 1.6 4.8 -11.2414
521 1 12.8 0 3.2 -11.8417
522 3 14.4 1.6 4.8 -11.2417
523 1 16 0 3.2 -11.8417
524 3 17.6 1.6 4.8 -11.2042
525 1 19.2 0 3.2 -11.8124
526 3 20.8 1.6 4.8 -11.0384
527 1 22.4 0 3.2 -11.5921
528 1 24 1.6 4.8 -11.5045
529 2 25.6 0 3.2 -9.63913
530 1 27.2 1.6 4.8 -11.7734
531 3 28.8 0 3.2 -11.1651
532 1 30.4 1.6 4.8 -11.7842
533 3 32 0 3.2 -11.242
534 1 33.6 1.6 4.8 -11.8121
535 3 35.2 0 3.2 -11.2414
536 1 36.8 1.6 4.8 -11.8412
537 3 38.4 0 3.2 -11.2417
538 1 40 1.6 4.8 -11.8782
539 3 41.6 0 3.2 -11.2051
540 1 43.2 1.6 4.8 -11.7823
541 3 44.8 0 3.2 -11.2018
542 1 46.4 1.6 4.8 -11.7015
543 3 48 0 3.2 -11.1462
544 2 49.6 1.6 4.8 -9.64066
545 1 0 3.2 3.2 -11.5451
546 2 1.6 4.8 4.8 -9.56504
547 1 3.2 3.2 3.2 -11.6095
548 3 4.8 4.8 4.8 -11.1674
549 1 6.4 3.2 3.2 -11.8144
550 3 8 4.8 4.8 -11.2039
551 1 9.6 3.2 3.2 -11.8122
552 3 11.2 4.8 4.8 -11.242
553 1 12.8 3.2 3.2 -11.8417
554 3 14.4 4.8 4.8 -11.242
555 1 16 3.2 3.2 -11.8417
556 3 17.6 4.8 4.8 -11.2389
557 1 19.2 3.2 3.2 -11.7844
558 2 20.8 4.8 4.8 -9.69926
559 1 22.4 3.2 3.2 -11.5269
560 1 24 4.8 4.8 -11.5175
561 3 25.6 3.2 3.2 -11.0378
562 1 27.2 4.8 4.8 -11.7233
563 3 28.8 3.2 3.2 -11.2063
564 1 30.4 4.8 4.8 -11.5889
565 3 32 3.2 3.2 -11.081
566 1 33.6 4.8 4.8 -11.6527
567 3 35.2 3.2 3.2 -11.2426
568 1 36.8 4.8 4.8 -11.7805
569 3 38.4 3.2 3.2 -11.2423
570 1 40 4.8 4.8 -11.7496
571 3 41.6 3.2 3.2 -11.2048
572 1 43.2 4.8 4.8 -11.588
573 2 44.8 3.2 3.2 -9.73055
574 2 46.4 4.8 4.8 -9.49226
575 1 48 3.2 3.2 -11.5887
576 2 49.6 4.8 4.8 -9.48985
577 2 0 6.4 3.2 -9.58157
578 1 1.6 8 4.8 -11.5235
579 1 3.2 6.4 3.2 -11.6063
580 3 4.8 8 4.8 -11.115
581 1 6.4 6.4 3.2 -11.7585
582 3 8 8 4.8 -11.2051
583 1 9.6 6.4 3.2 -11.7508
584 3 11.2 8 4.8 -11.2039
585 1 12.8 6.4 3.2 -11.7811
586 3 14.4 8 4.8 -11.2036
587 1 16 6.4 3.2 -11.8122
588 3 17.6 8 4.8 -11.2753
589 1 19.2 6.4 3.2 -11.8143
590 2 20.8 8 4.8 -9.75793
591 1 22.4 6.4 3.2 -11.5615
592 1 24 8 4.8 -11.6359
593 2 25.6 6.4 3.2 -9.56478
594 1 27.2 8 4.8 -11.6984
595 2 28.8 6.4 3.2 -9.63364
596 2 30.4 8 4.8 -9.58442
597 1 32 6.4 3.2 -11.3202
598 1 33.6 8 4.8 -11.2345
599 3 35.2 6.4 3.2 -10.9938
600 1 36.8 8 4.8 -11.5535
601 3 38.4 6.4 3.2 -11.1238
602 1 40 8 4.8 -11.6444
603 3 41.6 6.4 3.2 -11.0819
604 1 43.2 8 4.8 -11.6158
605 1 44.8 6.4 3.2 -11.5787
606 2 46.4 8 4.8 -9.60227
607 1 48 6.4 3.2 -11.5309
608 1 49.6 8 4.8 -11.497
609 3 0 9.6 3.2 -11.1015
610 1 1.6 11.2 4.8 -11.4254
611 2 3.2 9.6 3.2 -9.74182
612 3 4.8 11.2 4.8 -11.1463
613 1 6.4 9.6 3.2 -11.8418
614 3 8 11.2 4.8 -11.2048
615 1 9.6 9.6 3.2 -11.7808
616 3 11.2 11.2 4.8 -11.2039
617 1 12.8 9.6 3.2 -11.7811
618 3 14.4 11.2 4.8 -11.2423
619 1 16 9.6 3.2 -11.8124
620 3 17.6 11.2 4.8 -11.1657
621 1 19.2 9.6 3.2 -11.7801
622 2 20.8 11.2 4.8 -9.70079
623 1 22.4 9.6 3.2 -11.6671
624 1 24 11.2 4.8 -11.7279
625 2 25.6 9.6 3.2 -9.67062
626 1 27.2 11.2 4.8 -11.7227
627 2 28.8 9.6 3.2 -9.75637
628 3 30.4 11.2 4.8 -11.1725
629 1 32 9.6 3.2 -11.4066
630 1 33.6 11.2 4.8 -11.237
631 1 35.2 9.6 3.2 -11.322
632 1 36.8 11.2 4.8 -11.4239
633 3 38.4 9.6 3.2 -11.1232
634 1 40 11.2 4.8 -11.7199
635 3 41.6 9.6 3.2 -11.2054
636 1 43.2 11.2 4.8 -11.8122
637 3 44.8 9.6 3.2 -11.1997
638 1 46.4 11.2 4.8 -11.6947
639 1 48 9.6 3.2 -11.6039
640 2 49.6 11.2 4.8 -9.73292
641 1 0 12.8 3.2 -11.4892
642 1 1.6 14.4 4.8 -11.4119
643 1 3.2 12.8 3.2 -11.4401
644 1 4.8 14.4 4.8 -11.4924
645 1 6.4 12.8 3.2 -11.7189
646 2 8 14.4 4.8 -9.59978
647 1 9.6 12.8 3.2 -11.7808
648 2 11.2 14.4 4.8 -9.70694
649 1 12.8 12.8 3.2 -11.8124
650 3 14.4 14.4 4.8 -11.2033
651 1 16 12.8 3.2 -11.8417
652 3 17.6 14.4 4.8 -11.1256
653 1 19.2 12.8 3.2 -11.6503
654 1 20.8 14.4 4.8 -11.4895
655 2 22.4 12.8 3.2 -9.70295
656 1 24 14.4 4.8 -11.7841
657 3 25.6 12.8 3.2 -11.0753
658 1 27.2 14.4 4.8 -11.7963
659 1 28.8 12.8 3.2 -11.6335
660 3 30.4 14.4 4.8 -11.186
661 1 32 12.8 3.2 -11.649
662 2 33.6 14.4 4.8 -9.66946
663 1 35.2 12.8 3.2 -11.5788
664 3 36.8 14.4 4.8 -10.9638
665 2 38.4 12.8 3.2 -9.73555
666 1 40 14.4 4.8 -11.7776
667 3 41.6 12.8 3.2 -11.1668
668 1 43.2 14.4 4.8 -11.7089
669 3 44.8 12.8 3.2 -11.1252
670 1 46.4 14.4 4.8 -11.6688
671 2 48 12.8 3.2 -9.67972
672 1 49.6 14.4 4.8 -11.599
673 3 0 16 3.2 -11.1703
674 1 1.6 17.6 4.8 -11.8418
675 2 3.2 16 3.2 -9.73178
676 1 4.8 17.6 4.8 -11.6447
677 2 6.4 16 3.2 -9.68537
678 1 8 17.6 4.8 -11.4885
679 1 9.6 16 3.2 -11.6911
680 3 11.2 17.6 4.8 -11.081
681 1 12.8 16 3.2 -11.8124
682 3 14.4 17.6 4.8 -11.242
683 1 16 16 3.2 -11.8417
684 3 17.6 17.6 4.8 -11.1238
685 1 19.2 16 3.2 -11.5825
686 1 20.8 17.6 4.8 -11.5703
687 3 22.4 16 3.2 -10.9491
688 1 24 17.6 4.8 -11.7499
689 3 25.6 16 3.2 -11.2074
690 1 27.2 17.6 4.8 -11.8412
691 3 28.8 16 3.2 -11.0821
692 1 30.4 17.6 4.8 -11.7743
693 1 32 16 3.2 -11.6079
694 2 33.6 17.6 4.8 -9.59615
695 1 35.2 16 3.2 -11.6692
696 1 36.8 17.6 4.8 -11.5976
697 2 38.4 16 3.2 -9.76516
698 1 40 17.6 4.8 -11.7648
699 3 41.6 16 3.2 -11.0424
700 1 43.2 17.6 4.8 -11.5182
701 1 44.8 16 3.2 -11.4273
702 2 46.4 17.6 4.8 -9.56271
703 1 48 16 3.2 -11.5749
704 1 49.6 17.6 4.8 -11.78
705 3 0 19.2 3.2 -11.2662
706 1 1.6 20.8 4.8 -11.8415
707 3 3.2 19.2 3.2 -11.1646
708 1 4.8 20.8 4.8 -11.8287
709 3 6.4 19.2 3.2 -11.203
710 3 8 20.8 4.8 -11.0063
711 1 9.6 19.2 3.2 -11.6922
712 3 11.2 20.8 4.8 -11.2071
713 1 12.8 19.2 3.2 -11.8124
714 3 14.4 20.8 4.8 -11.2039
715 1 16 19.2 3.2 -11.8124
716 3 17.6 20.8 4.8 -11.2432
717 1 19.2 19.2 3.2 -11.7251
718 3 20.8 20.8 4.8 -11.1926
719 2 22.4 19.2 3.2 -9.81729
720 1 24 20.8 4.8 -11.6938
721 3 25.6 19.2 3.2 -11.1238
722 1 27.2 20.8 4.8 -11.7498
723 3 28.8 19.2 3.2 -11.1663
724 1 30.4 20.8 4.8 -11.7522
725 2 32 19.2 3.2 -9.67001
726 1 33.6 20.8 4.8 -11.7196
727 1 35.2 19.2 3.2 -11.569
728 1 36.8 20.8 4.8 -11.7242
729 3 38.4 19.2 3.2 -11.2168
730 3 40 20.8 4.8 -11.0506
731 3 41.6 19.2 3.2 -11.0265
732 1 43.2 20.8 4.8 -11.43
733 1 44.8 19.2 3.2 -11.3855
734 3 46.4 20.8 4.8 -11.0076
735 2 48 19.2 3.2 -9.61778
736 1 49.6 20.8 4.8 -11.7138
737 3 0 22.4 3.2 -11.1653
738 1 1.6 24 4.8 -11.8413
739 3 3.2 22.4 3.2 -11.2432
740 1 4.8 24 4.8 -11.7083
741 3 6.4 22.4 3.2 -11.163
742 1 8 24 4.8 -11.5094
743 1 9.6 22.4 3.2 -11.6226
744 2 11.2 24 4.8 -9.61429
745 1 12.8 22.4 3.2 -11.7528
746 3 14.4 24 4.8 -11.1241
747 1 16 22.4 3.2 -11.7508
748 3 17.6 24 4.8 -11.2048
749 1 19.2 22.4 3.2 -11.7148
750 3 20.8 24 4.8 -11.1653
751 2 22.4 22.4 3.2 -9.69414
752 2 24 24 4.8 -9.67816
753 2 25.6 22.4 3.2 -9.72197
754 1 27.2 24 4.8 -11.5907
755 2 28.8 22.4 3.2 -9.61492
756 1 30.4 24 4.8 -11.625
757 3 32 22.4 3.2 -11.126
758 1 33.6 24 4.8 -11.7808
759 3 35.2 22.4 3.2 -11.2024
760 1 36.8 24 4.8 -11.7801
761 3 38.4 22.4 3.2 -11.2696
762 1 40 24 4.8 -11.5992
763 1 41.6 22.4 3.2 -11.489
764 2 43.2 24 4.8 -9.5242
765 1 44.8 22.4 3.2 -11.4635
766 2 46.4 24 4.8 -9.66681
767 1 48 22.4 3.2 -11.5414
768 1 49.6 24 4.8 -11.6356
769 3 0 25.6 3.2 -11.1926
771 3 3.2 25.6 3.2 -11.2441
773 3 6.4 25.6 3.2 -11.0425
775 1 9.6 25.6 3.2 -11.4547
777 1 12.8 25.6 3.2 -11.562
779 1 16 25.6 3.2 -11.6918
781 1 19.2 25.6 3.2 -11.6745
783 1 22.4 25.6 3.2 -11.4809
785 3 25.6 25.6 3.2 -10.9012
787 2 28.8 25.6 3.2 -9.57956
789 2 32 25.6 3.2 -9.67712
791 3 35.2 25.6 3.2 -11.2042
793 3 38.4 25.6 3.2 -11.1965
795 1 41.6 25.6 3.2 -11.6252
797 1 44.8 25.6 3.2 -11.7508
799 1 48 25.6 3.2 -11.68
770 1 1.6 27.2 4.8 -11.7487
801 1 0 28.8 3.2 -11.6666
772 1 4.8 27.2 4.8 -11.7261
803 3 3.2 28.8 3.2 -11.0847
774 2 8 27.2 4.8 -9.69845
805 2 6.4 28.8 3.2 -9.72215
776 2 11.2 27.2 4.8 -9.66414
807 2 9.6 28.8 3.2 -9.7791
778 2 14.4 27.2 4.8 -9.69268
809 2 12.8 28.8 3.2 -9.75144
780 3 17.6 27.2 4.8 -11.2048
811 1 16 28.8 3.2 -11.7497
782 3 20.8 27.2 4.8 -11.0822
813 1 19.2 28.8 3.2 -11.7811
784 1 24 27.2 4.8 -11.4416
815 1 22.4 28.8 3.2 -11.5582
817 2 25.6 28.8 3.2 -9.57545
786 1 27.2 27.2 4.8 -11.4913
819 3 28.8 28.8 3.2 -11.0826
788 1 30.4 27.2 4.8 -11.5862
821 3 32 28.8 3.2 -11.2051
790 1 33.6 27.2 4.8 -11.7808
823 3 35.2 28.8 3.2 -11.2042
792 1 36.8 27.2 4.8 -11.8178
825 2 38.4 28.8 3.2 -9.78841
794 2 40 27.2 4.8 -9.68921
827 1 41.6 28.8 3.2 -11.6281
796 2 43.2 27.2 4.8 -9.62933
829 1 44.8 28.8 3.2 -11.7511
798 3 46.4 27.2 4.8 -11.0408
831 1 48 28.8 3.2 -11.752
800 2 49.6 27.2 4.8 -9.70077
802 1 1.6 30.4 4.8 -11.5823
833 1 0 32 3.2 -11.7184
804 1 4.8 30.4 4.8 -11.6493
835 2 3.2 32 3.2 -9.70724
806 2 8 30.4 4.8 -9.8288
837 3 6.4 32 3.2 -11.1877
808 2 11.2 30.4 4.8 -9.78046
839 2 9.6 32 3.2 -9.784
810 3 14.4 30.4 4.8 -11.2003
841 1 12.8 32 3.2 -11.7393
812 3 17.6 30.4 4.8 -11.2426
843 1 16 32 3.2 -11.8122
814 3 20.8 30.4 4.8 -11.1249
845 1 19.2 32 3.2 -11.7504
816 2 24 30.4 4.8 -9.57264
847 1 22.4 32 3.2 -11.5685
849 1 25.6 32 3.2 -11.4265
818 2 27.2 30.4 4.8 -9.63955
851 2 28.8 32 3.2 -9.70393
820 1 30.4 30.4 4.8 -11.6957
853 3 32 32 3.2 -11.2045
822 1 33.6 30.4 4.8 -11.8415
855 3 35.2 32 3.2 -11.2039
824 1 36.8 30.4 4.8 -11.7504
857 2 38.4 32 3.2 -9.72352
826 1 40 30.4 4.8 -11.4697
859 1 41.6 32 3.2 -11.5863
828 2 43.2 30.4 4.8 -9.5502
861 1 44.8 32 3.2 -11.7811
830 2 46.4 30.4 4.8 -9.70728
863 1 48 32 3.2 -11.8124
832 3 49.6 30.4 4.8 -11.0836
834 2 1.6 33.6 4.8 -9.6246
865 1 0 35.2 3.2 -11.7382
836 1 4.8 33.6 4.8 -11.7413
867 3 3.2 35.2 3.2 -11.1771
838 2 8 33.6 4.8 -9.77436
869 3 6.4 35.2 3.2 -11.1909
840 1 11.2 33.6 4.8 -11.4817
871 1 9.6 35.2 3.2 -11.5658
842 2 14.4 33.6 4.8 -9.64673
873 1 12.8 35.2 3.2 -11.596
844 3 17.6 33.6 4.8 -11.1664
875 1 16 35.2 3.2 -11.8231
846 2 20.8 33.6 4.8 -9.59582
877 1 19.2 35.2 3.2 -11.6371
848 1 24 33.6 4.8 -11.421
879 2 22.4 35.2 3.2 -9.61589
881 2 25.6 35.2 3.2 -9.60796
850 2 27.2 33.6 4.8 -9.63807
883 3 28.8 35.2 3.2 -11.2243
852 1 30.4 33.6 4.8 -11.7009
885 3 32 35.2 3.2 -11.2748
854 1 33.6 33.6 4.8 -11.812
887 3 35.2 35.2 3.2 -11.2429
856 1 36.8 33.6 4.8 -11.7808
889 3 38.4 35.2 3.2 -11.0409
858 1 40 33.6 4.8 -11.5946
891 1 41.6 35.2 3.2 -11.5816
860 3 43.2 33.6 4.8 -11.1244
893 1 44.8 35.2 3.2 -11.7249
862 3 46.4 33.6 4.8 -11.1254
895 1 48 35.2 3.2 -11.8419
864 3 49.6 33.6 4.8 -11.208
866 1 1.6 36.8 4.8 -11.6099
897 1 0 38.4 3.2 -11.6218
868 1 4.8 36.8 4.8 -11.7482
899 1 3.2 38.4 3.2 -11.6013
870 1 8 36.8 4.8 -11.6482
901 2 6.4 38.4 3.2 -9.63471
872 1 11.2 36.8 4.8 -11.4
903 1 9.6 38.4 3.2 -11.4597
874 3 14.4 36.8 4.8 -11.0693
905 1 12.8 38.4 3.2 -11.5405
876 3 17.6 36.8 4.8 -11.2208
907 3 16 38.4 3.2 -11.3073
878 1 20.8 36.8 4.8 -11.5224
909 2 19.2 38.4 3.2 -9.73206
880 2 24 36.8 4.8 -9.60724
911 2 22.4 38.4 3.2 -9.70363
913 1 25.6 38.4 3.2 -11.5202
882 2 27.2 36.8 4.8 -9.68688
915 3 28.8 38.4 3.2 -11.1533
884 2 30.4 36.8 4.8 -9.77129
917 3 32 38.4 3.2 -11.2743
886 1 33.6 36.8 4.8 -11.8144
919 3 35.2 38.4 3.2 -11.2426
888 1 36.8 36.8 4.8 -11.8124
921 3 38.4 38.4 3.2 -11.1676
890 1 40 36.8 4.8 -11.6709
923 3 41.6 38.4 3.2 -11.0416
892 2 43.2 36.8 4.8 -9.68671
925 2 44.8 38.4 3.2 -9.76181
894 2 46.4 36.8 4.8 -9.65333
927 2 48 38.4 3.2 -9.7941
896 3 49.6 36.8 4.8 -11.0749
898 2 1.6 40 4.8 -9.73439
929 1 0 41.6 3.2 -11.6899
900 1 4.8 40 4.8 -11.6352
931 1 3.2 41.6 3.2 -11.6792
902 1 8 40 4.8 -11.531
933 1 6.4 41.6 3.2 -11.6314
904 1 11.2 40 4.8 -11.3755
935 1 9.6 41.6 3.2 -11.5876
906 1 14.4 40 4.8 -11.5201
937 1 12.8 41.6 3.2 -11.5701
908 2 17.6 40 4.8 -9.79222
939 2 16 41.6 3.2 -9.76813
910 2 20.8 40 4.8 -9.70157
941 1 19.2 41.6 3.2 -11.5845
912 2 24 40 4.8 -9.72087
943 3 22.4 41.6 3.2 -11.2147
945 3 25.6 41.6 3.2 -11.0713
914 1 27.2 40 4.8 -11.547
947 3 28.8 41.6 3.2 -11.2447
916 1 30.4 40 4.8 -11.7497
949 3 32 41.6 3.2 -11.242
918 1 33.6 40 4.8 -11.8122
951 3 35.2 41.6 3.2 -11.2036
920 1 36.8 40 4.8 -11.8124
953 3 38.4 41.6 3.2 -11.2438
922 1 40 40 4.8 -11.6749
955 3 41.6 41.6 3.2 -11.1663
924 1 43.2 40 4.8 -11.5838
957 3 44.8 41.6 3.2 -11.1674
926 1 46.4 40 4.8 -11.6233
959 3 48 41.6 3.2 -11.1646
928 2 49.6 40 4.8 -9.75413
930 2 1.6 43.2 4.8 -9.77212
961 1 0 44.8 3.2 -11.7238
932 2 4.8 43.2 4.8 -9.81712
963 1 3.2 44.8 3.2 -11.7872
934 2 8 43.2 4.8 -9.75307
965 1 6.4 44.8 3.2 -11.828
936 2 11.2 43.2 4.8 -9.63634
967 1 9.6 44.8 3.2 -11.7503
938 1 14.4 43.2 4.8 -11.3766
969 1 12.8 44.8 3.2 -11.562
940 2 17.6 43.2 4.8 -9.66635
971 1 16 44.8 3.2 -11.5778
942 2 20.8 43.2 4.8 -9.72692
973 1 19.2 44.8 3.2 -11.6518
944 2 24 43.2 4.8 -9.77047
975 2 22.4 44.8 3.2 -9.8272
977 2 25.6 44.8 3.2 -9.75945
946 1 27.2 43.2 4.8 -11.6957
979 3 28.8 44.8 3.2 -11.2045
948 1 30.4 43.2 4.8 -11.8415
981 3 32 44.8 3.2 -11.2417
950 1 33.6 43.2 4.8 -11.8417
983 3 35.2 44.8 3.2 -11.2045
952 1 36.8 43.2 4.8 -11.7451
985 3 38.4 44.8 3.2 -11.0813
954 1 40 43.2 4.8 -11.6564
987 2 41.6 44.8 3.2 -9.66603
956 1 43.2 43.2 4.8 -11.6893
989 3 44.8 44.8 3.2 -11.1258
958 1 46.4 43.2 4.8 -11.7802
991 3 48 44.8 3.2 -11.2291
960 1 49.6 43.2 4.8 -11.7807
962 2 1.6 46.4 4.8 -9.72981
993 1 0 48 3.2 -11.698
964 3 4.8 46.4 4.8 -11.2298
995 1 3.2 48 3.2 -11.8122
966 3 8 46.4 4.8 -11.1605
997 1 6.4 48 3.2 -11.8414
968 2 11.2 46.4 4.8 -9.61404
999 1 9.6 48 3.2 -11.8124
970 1 14.4 46.4 4.8 -11.28
1001 1 12.8 48 3.2 -11.7096
972 2 17.6 46.4 4.8 -9.61379
1003 1 16 48 3.2 -11.7096
974 3 20.8 46.4 4.8 -11.2373
1005 1 19.2 48 3.2 -11.8122
976 3 24 46.4 4.8 -11.1425
1007 1 22.4 48 3.2 -11.7001
1009 2 25.6 48 3.2 -9.71023
978 1 27.2 46.4 4.8 -11.7509
1011 3 28.8 48 3.2 -11.2048
980 1 30.4 46.4 4.8 -11.8415
1013 3 32 48 3.2 -11.2414
982 1 33.6 46.4 4.8 -11.8417
1015 3 35.2 48 3.2 -11.2417
984 1 36.8 46.4 4.8 -11.7451
1017 3 38.4 48 3.2 -11.2054
986 1 40 46.4 4.8 -11.6509
1019 2 41.6 48 3.2 -9.69283
988 1 43.2 46.4 4.8 -11.7528
1021 3 44.8 48 3.2 -11.1235
990 1 46.4 46.4 4.8 -11.8116
1023 2 48 48 3.2 -9.79432
992 2 49.6 46.4 4.8 -9.70362
994 3 1.6 49.6 4.8 -10.8968
996 3 4.8 49.6 4.8 -11.1253
998 3 8 49.6 4.8 -11.2054
1000 3 11.2 49.6 4.8 -11.2045
1002 3 14.4 49.6 4.8 -11.1232
1004 3 17.6 49.6 4.8 -11.2045
1006 3 20.8 49.6 4.8 -11.1244
1008 1 24 49.6 4.8 -11.5362
1010 1 27.2 49.6 4.8 -11.7232
1012 1 30.4 49.6 4.8 -11.8122
1014 1 33.6 49.6 4.8 -11.8417
1016 1 36.8 49.6 4.8 -11.8417
1018 1 40 49.6 4.8 -11.8121
1020 1 43.2 49.6 4.8 -11.7826
1022 1 46.4 49.6 4.8 -11.7512
1024 1 49.6 49.6 4.8 -11.597
1025 1 0 0 6.4 -11.4799
1026 1 1.6 1.6 8 -11.6294
1027 1 3.2 0 6.4 -11.5486
1028 2 4.8 1.6 8 -9.66762
1029 1 6.4 0 6.4 -11.674
1030 3 8 1.6 8 -11.0378
1031 1 9.6 0 6.4 -11.8124
1032 3 11.2 1.6 8 -11.2432
1033 1 12.8 0 6.4 -11.8417
1034 3 14.4 1.6 8 -11.1654
1035 1 16 0 6.4 -11.8124
1036 2 17.6 1.6 8 -9.61417
1037 1 19.2 0 6.4 -11.8124
1038 3 20.8 1.6 8 -10.9946
1039 1 22.4 0 6.4 -11.6202
1040 2 24 1.6 8 -9.6369
1041 2 25.6 0 6.4 -9.71713
1042 3 27.2 1.6 8 -11.202
1043 2 28.8 0 6.4 -9.7881
1044 1 30.4 1.6 8 -11.5661
1045 3 32 0 6.4 -11.0378
1046 1 33.6 1.6 8 -11.5441
1047 3 35.2 0 6.4 -11.1247
1048 1 36.8 1.6 8 -11.5776
1049 3 38.4 0 6.4 -11.3073
1050 3 40 1.6 8 -11.2273
1051 3 41.6 0 6.4 -11.3272
1052 2 43.2 1.6 8 -9.8412
1053 2 44.8 0 6.4 -9.80851
1054 3 46.4 1.6 8 -11.2374
1055 2 48 0 6.4 -9.78564
1056 3 49.6 1.6 8 -11.2522
1057 1 0 3.2 6.4 -11.6483
1058 3 1.6 4.8 8 -11.1303
1059 1 3.2 3.2 6.4 -11.702
1060 3 4.8 4.8 8 -11.2547
1061 1 6.4 3.2 6.4 -11.8119
1062 3 8 4.8 8 -11.2034
1063 1 9.6 3.2 6.4 -11.8417
1064 3 11.2 4.8 8 -11.2426
1065 1 12.8 3.2 6.4 -11.8417
1066 3 14.4 4.8 8 -11.1654
1067 1 16 3.2 6.4 -11.7808
1068 2 17.6 4.8 8 -9.65809
1069 1 19.2 3.2 6.4 -11.6911
1070 1 20.8 4.8 8 -11.535
1071 1 22.4 3.2 6.4 -11.4946
1072 1 24 4.8 8 -11.5488
1073 2 25.6 3.2 6.4 -9.69425
1074 1 27.2 4.8 8 -11.7488
1075 3 28.8 3.2 6.4 -11.1586
1076 1 30.4 4.8 8 -11.5789
1077 2 32 3.2 6.4 -9.67085
1078 3 33.6 4.8 8 -11.0095
1079 3 35.2 3.2 6.4 -11.2662
1080 2 36.8 4.8 8 -9.74882
1081 3 38.4 3.2 6.4 -11.2607
1082 2 40 4.8 8 -9.69361
1083 3 41.6 3.2 6.4 -11.287
1084 1 43.2 4.8 8 -11.5893
1085 2 44.8 3.2 6.4 -9.70248
1086 1 46.4 4.8 8 -11.521
1087 1 48 3.2 6.4 -11.6341
1088 2 49.6 4.8 8 -9.65522
1089 1 0 6.4 6.4 -11.5108
1090 1 1.6 8 8 -11.4561
1091 1 3.2 6.4 6.4 -11.6139
1092 1 4.8 8 8 -11.6143
1093 1 6.4 6.4 6.4 -11.7808
1094 3 8 8 8 -11.1641
1095 1 9.6 6.4 6.4 -11.8415
1096 3 11.2 8 8 -11.2423
1097 1 12.8 6.4 6.4 -11.8417
1098 3 14.4 8 8 -11.2051
1099 1 16 6.4 6.4 -11.8421
1100 3 17.6 8 8 -11.1518
1101 2 19.2 6.4 6.4 -9.78673
1102 1 20.8 8 8 -11.7223
1103 3 22.4 6.4 6.4 -11.117