ITEM: TIMESTEP
0
ITEM: NUMBER OF ATOMS
8192
ITEM: BOX BOUNDS pp pp pp
0.0000000000000000e+00 5.1200000000000003e+01
0.0000000000000000e+00 5.1200000000000003e+01
0.0000000000000000e+00 5.1200000000000003e+01
ITEM: ATOMS id type x y z c_eng
1 1 0 0 0 -11.7884
2 2 1.6 1.6 1.6 -9.7337
3 1 3.2 0 0 -11.7823
4 3 4.8 1.6 1.6 -11.2366
5 1 6.4 0 0 -11.8379
6 3 8 1.6 1.6 -11.3086
7 1 9.6 0 0 -11.8415
8 3 11.2 1.6 1.6 -11.2417
9 1 12.8 0 0 -11.8417
10 3 14.4 1.6 1.6 -11.2033
11 1 16 0 0 -11.8124
12 2 17.6 1.6 1.6 -9.73522
13 1 19.2 0 0 -11.7528
14 3 20.8 1.6 1.6 -11.0854
15 1 22.4 0 0 -11.6307
16 2 24 1.6 1.6 -9.68089
17 3 25.6 0 0 -11.1967
18 1 27.2 1.6 1.6 -11.8421
19 3 28.8 0 0 -11.2039
20 1 30.4 1.6 1.6 -11.8417
21 3 32 0 0 -11.2417
22 1 33.6 1.6 1.6 -11.8417
23 3 35.2 0 0 -11.2414
24 1 36.8 1.6 1.6 -11.8417
25 3 38.4 0 0 -11.2423
26 1 40 1.6 1.6 -11.8417
27 3 41.6 0 0 -11.1241
28 1 43.2 1.6 1.6 -11.8124
29 3 44.8 0 0 -10.8994
30 1 46.4 1.6 1.6 -11.6176
31 1 48 0 0 -11.5102
32 1 49.6 1.6 1.6 -11.6284
33 2 0 3.2 0 -9.72738
34 1 1.6 4.8 1.6 -11.5828
35 1 3.2 3.2 0 -11.6015
36 2 4.8 4.8 1.6 -9.66163
37 2 6.4 3.2 0 -9.7321
38 3 8 4.8 1.6 -11.1963
39 1 9.6 3.2 0 -11.7453
40 3 11.2 4.8 1.6 -11.1651
41 1 12.8 3.2 0 -11.8124
42 3 14.4 4.8 1.6 -11.2423
43 1 16 3.2 0 -11.8124
44 3 17.6 4.8 1.6 -11.2036
45 1 19.2 3.2 0 -11.7846
46 3 20.8 4.8 1.6 -11.083
47 1 22.4 3.2 0 -11.5476
48 1 24 4.8 1.6 -11.5348
49 3 25.6 3.2 0 -11.1193
50 1 27.2 4.8 1.6 -11.7505
51 3 28.8 3.2 0 -11.2426
52 1 30.4 4.8 1.6 -11.7841
53 3 32 3.2 0 -11.2033
54 1 33.6 4.8 1.6 -11.8423
55 3 35.2 3.2 0 -11.2417
56 1 36.8 4.8 1.6 -11.8415
57 3 38.4 3.2 0 -11.2414
58 1 40 4.8 1.6 -11.8417
59 3 41.6 3.2 0 -11.2033
60 1 43.2 4.8 1.6 -11.7844
61 2 44.8 3.2 0 -9.7076
62 1 46.4 4.8 1.6 -11.5566
63 2 48 3.2 0 -9.62721
64 1 49.6 4.8 1.6 -11.5881
65 3 0 6.4 0 -11.0833
66 1 1.6 8 1.6 -11.6454
67 2 3.2 6.4 0 -9.56447
68 1 4.8 8 1.6 -11.5896
69 2 6.4 6.4 0 -9.66732
70 2 8 8 1.6 -9.6736
71 1 9.6 6.4 0 -11.5518
72 2 11.2 8 1.6 -9.67735
73 1 12.8 6.4 0 -11.7511
74 3 14.4 8 1.6 -11.1642
75 1 16 6.4 0 -11.8417
76 3 17.6 8 1.6 -11.2423
77 1 19.2 6.4 0 -11.8417
78 3 20.8 8 1.6 -11.1252
79 1 22.4 6.4 0 -11.6199
80 2 24 8 1.6 -9.64151
81 2 25.6 6.4 0 -9.63739
82 1 27.2 8 1.6 -11.6296
83 3 28.8 6.4 0 -11.0826
84 1 30.4 8 1.6 -11.7201
85 2 32 6.4 0 -9.77601
86 2 33.6 8 1.6 -9.73498
87 3 35.2 6.4 0 -11.2389
88 1 36.8 8 1.6 -11.7491
89 3 38.4 6.4 0 -11.242
90 1 40 8 1.6 -11.8417
91 3 41.6 6.4 0 -11.2423
92 1 43.2 8 1.6 -11.8178
93 3 44.8 6.4 0 -11.0808
94 2 46.4 8 1.6 -9.53709
95 1 48 6.4 0 -11.3839
96 1 49.6 8 1.6 -11.5016
97 2 0 9.6 0 -9.63131
98 1 1.6 11.2 1.6 -11.4701
99 3 3.2 9.6 0 -11.0391
100 2 4.8 11.2 1.6 -9.63971
101 2 6.4 9.6 0 -9.73198
102 3 8 11.2 1.6 -11.2051
103 1 9.6 9.6 0 -11.6713
104 3 11.2 11.2 1.6 -11.0818
105 1 12.8 9.6 0 -11.7242
106 2 14.4 11.2 1.6 -9.70706
107 1 16 9.6 0 -11.8124
108 3 17.6 11.2 1.6 -11.1658
109 1 19.2 9.6 0 -11.8124
110 2 20.8 11.2 1.6 -9.72211
111 1 22.4 9.6 0 -11.719
112 2 24 11.2 1.6 -9.66812
113 1 25.6 9.6 0 -11.6276
114 1 27.2 11.2 1.6 -11.5567
115 2 28.8 9.6 0 -9.69791
116 2 30.4 11.2 1.6 -9.59979
117 2 32 9.6 0 -9.80543
118 3 33.6 11.2 1.6 -11.1543
119 2 35.2 9.6 0 -9.79173
120 1 36.8 11.2 1.6 -11.6888
121 3 38.4 9.6 0 -11.2026
122 1 40 11.2 1.6 -11.8116
123 3 41.6 9.6 0 -11.2039
124 1 43.2 11.2 1.6 -11.8122
125 2 44.8 9.6 0 -9.72264
126 1 46.4 11.2 1.6 -11.6182
127 1 48 9.6 0 -11.3268
128 1 49.6 11.2 1.6 -11.5255
129 1 0 12.8 0 -11.366
130 1 1.6 14.4 1.6 -11.3411
131 1 3.2 12.8 0 -11.2414
132 1 4.8 14.4 1.6 -11.3687
133 1 6.4 12.8 0 -11.5119
134 3 8 14.4 1.6 -11.0389
135 1 9.6 12.8 0 -11.7234
136 2 11.2 14.4 1.6 -9.73565
137 1 12.8 12.8 0 -11.7583
138 3 14.4 14.4 1.6 -11.1226
139 1 16 12.8 0 -11.8124
140 3 17.6 14.4 1.6 -11.2051
141 1 19.2 12.8 0 -11.7808
142 2 20.8 14.4 1.6 -9.66972
143 1 22.4 12.8 0 -11.6597
144 1 24 14.4 1.6 -11.5443
145 1 25.6 12.8 0 -11.5565
146 2 27.2 14.4 1.6 -9.60209
147 1 28.8 12.8 0 -11.5609
148 1 30.4 14.4 1.6 -11.4588
149 1 32 12.8 0 -11.6474
150 3 33.6 14.4 1.6 -11.0835
151 1 35.2 12.8 0 -11.7628
152 3 36.8 14.4 1.6 -11.2558
153 2 38.4 12.8 0 -9.78742
154 1 40 14.4 1.6 -11.7311
155 3 41.6 12.8 0 -11.1657
156 1 43.2 14.4 1.6 -11.7511
157 3 44.8 12.8 0 -11.0838
158 1 46.4 14.4 1.6 -11.674
159 2 48 12.8 0 -9.60565
160 3 49.6 14.4 1.6 -11.0466
161 1 0 16 0 -11.4159
162 1 1.6 17.6 1.6 -11.6349
163 1 3.2 16 0 -11.2407
164 1 4.8 17.6 1.6 -11.6603
165 1 6.4 16 0 -11.5072
166 2 8 17.6 1.6 -9.76134
167 1 9.6 16 0 -11.7574
168 3 11.2 17.6 1.6 -11.2361
169 1 12.8 16 0 -11.8124
170 3 14.4 17.6 1.6 -11.242
171 1 16 16 0 -11.8417
172 3 17.6 17.6 1.6 -11.2423
173 1 19.2 16 0 -11.8122
174 3 20.8 17.6 1.6 -11.1573
175 1 22.4 16 0 -11.5823
176 1 24 17.6 1.6 -11.5596
177 1 25.6 16 0 -11.5814
178 1 27.2 17.6 1.6 -11.778
179 3 28.8 16 0 -11.0592
180 1 30.4 17.6 1.6 -11.4389
181 1 32 16 0 -11.5527
182 2 33.6 17.6 1.6 -9.42588
183 1 35.2 16 0 -11.7837
184 3 36.8 17.6 1.6 -11.1102
185 1 38.4 16 0 -11.585
186 1 40 17.6 1.6 -11.63
187 2 41.6 16 0 -9.58626
188 1 43.2 17.6 1.6 -11.6911
189 2 44.8 16 0 -9.5869
190 1 46.4 17.6 1.6 -11.5656
191 1 48 16 0 -11.5126
192 2 49.6 17.6 1.6 -9.77371
193 2 0 19.2 0 -9.71953
194 1 1.6 20.8 1.6 -11.7873
195 3 3.2 19.2 0 -11.0824
196 1 4.8 20.8 1.6 -11.8117
197 2 6.4 19.2 0 -9.76161
198 1 8 20.8 1.6 -11.6974
199 1 9.6 19.2 0 -11.7572
200 3 11.2 20.8 1.6 -11.2691
201 1 12.8 19.2 0 -11.8415
202 3 14.4 20.8 1.6 -11.2417
203 1 16 19.2 0 -11.8417
204 3 17.6 20.8 1.6 -11.1639
205 1 19.2 19.2 0 -11.812
206 2 20.8 20.8 1.6 -9.76464
207 1 22.4 19.2 0 -11.6766
208 1 24 20.8 1.6 -11.5744
209 2 25.6 19.2 0 -9.67131
210 1 27.2 20.8 1.6 -11.7209
211 3 28.8 19.2 0 -11.1117
212 1 30.4 20.8 1.6 -11.604
213 1 32 19.2 0 -11.3872
214 1 33.6 20.8 1.6 -11.5155
215 1 35.2 19.2 0 -11.5845
216 2 36.8 20.8 1.6 -9.78038
217 1 38.4 19.2 0 -11.576
218 1 40 20.8 1.6 -11.6503
219 2 41.6 19.2 0 -9.69124
220 1 43.2 20.8 1.6 -11.6066
221 3 44.8 19.2 0 -10.9795
222 2 46.4 20.8 1.6 -9.7359
223 1 48 19.2 0 -11.6221
224 2 49.6 20.8 1.6 -9.80596
225 2 0 22.4 0 -9.75361
226 1 1.6 24 1.6 -11.759
227 3 3.2 22.4 0 -11.1666
228 1 4.8 24 1.6 -11.7808
229 3 6.4 22.4 0 -11.0826
230 1 8 24 1.6 -11.5646
231 1 9.6 22.4 0 -11.6235
232 3 11.2 24 1.6 -11.2039
233 1 12.8 22.4 0 -11.8415
234 3 14.4 24 1.6 -11.2039
235 1 16 22.4 0 -11.8124
236 2 17.6 24 1.6 -9.70683
237 1 19.2 22.4 0 -11.7839
238 2 20.8 24 1.6 -9.63198
239 2 22.4 22.4 0 -9.6908
240 1 24 24 1.6 -11.5311
241 2 25.6 22.4 0 -9.75061
242 1 27.2 24 1.6 -11.7393
243 2 28.8 22.4 0 -9.72911
244 1 30.4 24 1.6 -11.8121
245 3 32 22.4 0 -11.0827
246 1 33.6 24 1.6 -11.8415
247 3 35.2 22.4 0 -11.2334
248 1 36.8 24 1.6 -11.805
249 3 38.4 22.4 0 -11.1476
250 1 40 24 1.6 -11.625
251 2 41.6 22.4 0 -9.73416
252 3 43.2 24 1.6 -11.0689
253 1 44.8 22.4 0 -11.7202
254 3 46.4 24 1.6 -11.084
255 1 48 22.4 0 -11.6933
256 2 49.6 24 1.6 -9.72815
257 2 0 25.6 0 -9.78634
259 3 3.2 25.6 0 -11.1265
261 2 6.4 25.6 0 -9.63723
263 1 9.6 25.6 0 -11.563
265 1 12.8 25.6 0 -11.7093
267 1 16 25.6 0 -11.7831
269 1 19.2 25.6 0 -11.7508
271 1 22.4 25.6 0 -11.6192
273 2 25.6 25.6 0 -9.70157
275 3 28.8 25.6 0 -11.2979
277 3 32 25.6 0 -11.2042
279 3 35.2 25.6 0 -11.2045
281 2 38.4 25.6 0 -9.75043
283 2 41.6 25.6 0 -9.70833
285 1 44.8 25.6 0 -11.781
287 1 48 25.6 0 -11.7004
258 1 1.6 27.2 1.6 -11.6657
289 2 0 28.8 0 -9.62674
260 1 4.8 27.2 1.6 -11.6595
291 2 3.2 28.8 0 -9.66638
262 2 8 27.2 1.6 -9.74199
293 1 6.4 28.8 0 -11.5922
264 3 11.2 27.2 1.6 -11.1903
295 2 9.6 28.8 0 -9.69437
266 3 14.4 27.2 1.6 -11.1664
297 1 12.8 28.8 0 -11.6918
268 3 17.6 27.2 1.6 -11.1648
299 1 16 28.8 0 -11.8124
270 2 20.8 27.2 1.6 -9.58143
301 1 19.2 28.8 0 -11.7808
272 1 24 27.2 1.6 -11.3433
303 1 22.4 28.8 0 -11.6406
305 1 25.6 28.8 0 -11.5426
274 1 27.2 27.2 1.6 -11.5975
307 3 28.8 28.8 0 -11.2298
276 1 30.4 27.2 1.6 -11.8122
309 2 32 28.8 0 -9.70706
278 1 33.6 27.2 1.6 -11.8124
311 3 35.2 28.8 0 -11.1246
280 1 36.8 27.2 1.6 -11.7881
313 3 38.4 28.8 0 -11.0371
282 2 40 27.2 1.6 -9.66604
315 1 41.6 28.8 0 -11.5933
284 2 43.2 27.2 1.6 -9.74949
317 1 44.8 28.8 0 -11.7808
286 2 46.4 27.2 1.6 -9.67946
319 1 48 28.8 0 -11.7297
288 2 49.6 27.2 1.6 -9.73321
290 1 1.6 30.4 1.6 -11.5321
321 1 0 32 0 -11.6652
292 1 4.8 30.4 1.6 -11.596
323 2 3.2 32 0 -9.7592
294 1 8 30.4 1.6 -11.643
325 2 6.4 32 0 -9.59121
296 2 11.2 30.4 1.6 -9.81492
327 1 9.6 32 0 -11.6473
298 3 14.4 30.4 1.6 -11.2042
329 1 12.8 32 0 -11.7504
300 3 17.6 30.4 1.6 -11.2039
331 1 16 32 0 -11.8417
302 2 20.8 30.4 1.6 -9.72129
333 1 19.2 32 0 -11.7268
304 2 24 30.4 1.6 -9.44799
335 2 22.4 32 0 -9.68632
337 1 25.6 32 0 -11.5314
306 1 27.2 30.4 1.6 -11.5782
339 3 28.8 32 0 -11.2047
308 1 30.4 30.4 1.6 -11.8119
341 3 32 32 0 -11.1241
310 1 33.6 30.4 1.6 -11.7846
343 2 35.2 32 0 -9.6936
312 1 36.8 30.4 1.6 -11.7201
345 2 38.4 32 0 -9.44417
314 1 40 30.4 1.6 -11.4552
347 1 41.6 32 0 -11.4611
316 3 43.2 30.4 1.6 -10.9933
349 1 44.8 32 0 -11.7508
318 3 46.4 30.4 1.6 -11.1657
351 1 48 32 0 -11.7528
320 2 49.6 30.4 1.6 -9.62879
322 3 1.6 33.6 1.6 -11.1637
353 1 0 35.2 0 -11.8415
324 1 4.8 33.6 1.6 -11.542
355 1 3.2 35.2 0 -11.7135
326 1 8 33.6 1.6 -11.4871
357 1 6.4 35.2 0 -11.6092
328 3 11.2 33.6 1.6 -10.9966
359 1 9.6 35.2 0 -11.5844
330 3 14.4 33.6 1.6 -11.2435
361 1 12.8 35.2 0 -11.7508
332 3 17.6 33.6 1.6 -11.1663
363 1 16 35.2 0 -11.7881
334 2 20.8 33.6 1.6 -9.63957
365 1 19.2 35.2 0 -11.5376
336 1 24 33.6 1.6 -11.5016
367 2 22.4 35.2 0 -9.60718
369 2 25.6 35.2 0 -9.5649
338 1 27.2 33.6 1.6 -11.5762
371 3 28.8 35.2 0 -11.0424
340 1 30.4 33.6 1.6 -11.8122
373 3 32 35.2 0 -11.2068
342 1 33.6 33.6 1.6 -11.8122
375 3 35.2 35.2 0 -11.0418
344 1 36.8 33.6 1.6 -11.7005
377 1 38.4 35.2 0 -11.3726
346 1 40 33.6 1.6 -11.4786
379 2 41.6 35.2 0 -9.58337
348 2 43.2 33.6 1.6 -9.75837
381 1 44.8 35.2 0 -11.6659
350 3 46.4 33.6 1.6 -11.1238
383 1 48 35.2 0 -11.7511
352 3 49.6 33.6 1.6 -11.2054
354 3 1.6 36.8 1.6 -11.1663
385 1 0 38.4 0 -11.8124
356 2 4.8 36.8 1.6 -9.63593
387 1 3.2 38.4 0 -11.7808
358 2 8 36.8 1.6 -9.63272
389 1 6.4 38.4 0 -11.7568
360 3 11.2 36.8 1.6 -11.1677
391 1 9.6 38.4 0 -11.7508
362 3 14.4 36.8 1.6 -11.2031
393 1 12.8 38.4 0 -11.7575
364 2 17.6 36.8 1.6 -9.70187
395 2 16 38.4 0 -9.65398
366 1 20.8 36.8 1.6 -11.6064
397 2 19.2 38.4 0 -9.607
368 1 24 36.8 1.6 -11.7176
399 3 22.4 38.4 0 -11.1685
401 3 25.6 38.4 0 -11.0822
370 1 27.2 36.8 1.6 -11.7508
403 3 28.8 38.4 0 -11.1264
372 1 30.4 36.8 1.6 -11.8124
405 3 32 38.4 0 -11.2032
374 1 33.6 36.8 1.6 -11.8122
407 3 35.2 38.4 0 -11.0805
376 1 36.8 36.8 1.6 -11.6806
409 2 38.4 38.4 0 -9.61441
378 1 40 36.8 1.6 -11.6742
411 2 41.6 38.4 0 -9.7008
380 2 43.2 36.8 1.6 -9.79532
413 1 44.8 38.4 0 -11.4381
382 2 46.4 36.8 1.6 -9.62919
415 1 48 38.4 0 -11.53
384 3 49.6 36.8 1.6 -11.1663
386 3 1.6 40 1.6 -11.1265
417 1 0 41.6 0 -11.7806
388 2 4.8 40 1.6 -9.69334
419 1 3.2 41.6 0 -11.8124
390 3 8 40 1.6 -11.1249
421 1 6.4 41.6 0 -11.8122
392 3 11.2 40 1.6 -11.1663
423 1 9.6 41.6 0 -11.8417
394 2 14.4 40 1.6 -9.67658
425 1 12.8 41.6 0 -11.7806
396 1 17.6 40 1.6 -11.4462
427 1 16 41.6 0 -11.5256
398 1 20.8 40 1.6 -11.5907
429 1 19.2 41.6 0 -11.222
400 1 24 40 1.6 -11.814
431 3 22.4 41.6 0 -11.0824
433 3 25.6 41.6 0 -11.206
402 1 27.2 40 1.6 -11.8122
435 3 28.8 41.6 0 -11.081
404 1 30.4 40 1.6 -11.8415
437 3 32 41.6 0 -11.2404
406 1 33.6 40 1.6 -11.8136
439 2 35.2 41.6 0 -9.72272
408 1 36.8 40 1.6 -11.758
441 3 38.4 41.6 0 -11.1243
410 1 40 40 1.6 -11.7808
443 3 41.6 41.6 0 -11.1639
412 1 43.2 40 1.6 -11.685
445 2 44.8 41.6 0 -9.49097
414 1 46.4 40 1.6 -11.4301
447 1 48 41.6 0 -11.5403
416 2 49.6 40 1.6 -9.59657
418 3 1.6 43.2 1.6 -11.2402
449 1 0 44.8 0 -11.842
420 3 4.8 43.2 1.6 -11.0813
451 1 3.2 44.8 0 -11.8415
422 3 8 43.2 1.6 -11.2054
453 1 6.4 44.8 0 -11.8417
424 3 11.2 43.2 1.6 -11.2435
455 1 9.6 44.8 0 -11.7451
426 3 14.4 43.2 1.6 -11.1245
457 1 12.8 44.8 0 -11.7451
428 1 17.6 43.2 1.6 -11.4076
459 1 16 44.8 0 -11.7268
430 1 20.8 43.2 1.6 -11.5267
461 2 19.2 44.8 0 -9.60276
432 1 24 43.2 1.6 -11.7588
463 3 22.4 44.8 0 -11.1673
465 3 25.6 44.8 0 -11.1243
434 1 27.2 43.2 1.6 -11.7528
467 2 28.8 44.8 0 -9.70728
436 1 30.4 43.2 1.6 -11.8124
469 3 32 44.8 0 -11.1657
438 1 33.6 43.2 1.6 -11.7844
471 3 35.2 44.8 0 -11.0405
440 1 36.8 43.2 1.6 -11.7846
473 3 38.4 44.8 0 -11.1674
442 1 40 43.2 1.6 -11.7806
475 2 41.6 44.8 0 -9.63873
444 1 43.2 43.2 1.6 -11.7337
477 1 44.8 44.8 0 -11.5776
446 1 46.4 43.2 1.6 -11.5647
479 1 48 44.8 0 -11.6411
448 2 49.6 43.2 1.6 -9.75678
450 3 1.6 46.4 1.6 -11.2751
481 1 0 48 0 -11.8411
452 3 4.8 46.4 1.6 -11.2048
483 1 3.2 48 0 -11.8124
454 3 8 46.4 1.6 -11.2429
485 1 6.4 48 0 -11.8124
456 3 11.2 46.4 1.6 -11.1223
487 1 9.6 48 0 -11.7451
458 3 14.4 46.4 1.6 -11.2438
489 1 12.8 48 0 -11.7451
460 3 17.6 46.4 1.6 -11.1641
491 1 16 48 0 -11.8122
462 3 20.8 46.4 1.6 -11.1518
493 1 19.2 48 0 -11.7144
464 1 24 46.4 1.6 -11.6286
495 1 22.4 48 0 -11.5748
497 2 25.6 48 0 -9.66581
466 1 27.2 46.4 1.6 -11.6915
499 2 28.8 48 0 -9.67676
468 1 30.4 46.4 1.6 -11.7811
501 3 32 48 0 -11.2039
470 1 33.6 46.4 1.6 -11.8124
503 3 35.2 48 0 -11.2426
472 1 36.8 46.4 1.6 -11.8124
505 3 38.4 48 0 -11.1232
474 1 40 46.4 1.6 -11.7268
507 1 41.6 48 0 -11.4739
476 2 43.2 46.4 1.6 -9.64877
509 1 44.8 48 0 -11.4171
478 1 46.4 46.4 1.6 -11.585
511 1 48 48 0 -11.5699
480 3 49.6 46.4 1.6 -11.225
482 3 1.6 49.6 1.6 -11.2394
484 3 4.8 49.6 1.6 -11.2042
486 3 8 49.6 1.6 -11.2417
488 3 11.2 49.6 1.6 -11.2423
490 3 14.4 49.6 1.6 -11.2417
492 3 17.6 49.6 1.6 -11.2039
494 3 20.8 49.6 1.6 -11.1683
496 2 24 49.6 1.6 -9.62964
498 1 27.2 49.6 1.6 -11.7572
500 1 30.4 49.6 1.6 -11.8124
502 1 33.6 49.6 1.6 -11.8417
504 1 36.8 49.6 1.6 -11.8417
506 1 40 49.6 1.6 -11.7447
508 1 43.2 49.6 1.6 -11.6788
510 1 46.4 49.6 1.6 -11.5396
512 3 49.6 49.6 1.6 -11.1877
513 2 0 0 3.2 -9.74033
514 2 1.6 1.6 4.8 -9.79986
515 1 3.2 0 3.2 -11.8196
516 3 4.8 1.6 4.8 -11.2399
517 1 6.4 0 3.2 -11.8413
518 3 8 1.6 4.8 -11.2417
519 1 9.6 0 3.2 -11.8417
520 3 11.2 1.6 4.8 -11.2414
521 1 12.8 0 3.2 -11.8417
522 3 14.4 1.6 4.8 -11.2417
523 1 16 0 3.2 -11.8124
524 3 17.6 1.6 4.8 -11.1639
525 1 19.2 0 3.2 -11.7846
526 2 20.8 1.6 4.8 -9.61429
527 1 22.4 0 3.2 -11.5873
528 1 24 1.6 4.8 -11.4717
529 2 25.6 0 3.2 -9.72346
530 1 27.2 1.6 4.8 -11.7579
531 3 28.8 0 3.2 -11.1648
532 1 30.4 1.6 4.8 -11.8122
533 3 32 0 3.2 -11.2417
534 1 33.6 1.6 4.8 -11.8417
535 3 35.2 0 3.2 -11.2414
536 1 36.8 1.6 4.8 -11.8415
537 3 38.4 0 3.2 -11.2414
538 1 40 1.6 4.8 -11.8417
539 3 41.6 0 3.2 -11.2423
540 1 43.2 1.6 4.8 -11.8417
541 3 44.8 0 3.2 -11.2063
542 1 46.4 1.6 4.8 -11.7179
543 2 48 0 3.2 -9.69446
544 1 49.6 1.6 4.8 -11.6468
545 2 0 3.2 3.2 -9.79365
546 2 1.6 4.8 4.8 -9.63512
547 1 3.2 3.2 3.2 -11.6571
548 3 4.8 4.8 4.8 -11.0854
549 1 6.4 3.2 3.2 -11.8421
550 3 8 4.8 4.8 -11.2426
551 1 9.6 3.2 3.2 -11.8415
552 3 11.2 4.8 4.8 -11.2417
553 1 12.8 3.2 3.2 -11.8417
554 3 14.4 4.8 4.8 -11.2414
555 1 16 3.2 3.2 -11.8124
556 3 17.6 4.8 4.8 -11.2045
557 1 19.2 3.2 3.2 -11.7532
558 2 20.8 4.8 4.8 -9.62935
559 1 22.4 3.2 3.2 -11.5152
560 1 24 4.8 4.8 -11.4835
561 3 25.6 3.2 3.2 -11.0788
562 1 27.2 4.8 4.8 -11.7525
563 3 28.8 3.2 3.2 -11.2045
564 1 30.4 4.8 4.8 -11.8421
565 3 32 3.2 3.2 -11.242
566 1 33.6 4.8 4.8 -11.8115
567 3 35.2 3.2 3.2 -11.2417
568 1 36.8 4.8 4.8 -11.7505
569 3 38.4 3.2 3.2 -11.2423
570 1 40 4.8 4.8 -11.7093
571 3 41.6 3.2 3.2 -11.2423
572 1 43.2 4.8 4.8 -11.7508
573 3 44.8 3.2 3.2 -11.1243
574 1 46.4 4.8 4.8 -11.609
575 2 48 3.2 3.2 -9.59858
576 2 49.6 4.8 4.8 -9.69562
577 3 0 6.4 3.2 -11.1113
578 1 1.6 8 4.8 -11.5851
579 1 3.2 6.4 3.2 -11.5179
580 2 4.8 8 4.8 -9.57486
581 1 6.4 6.4 3.2 -11.6849
582 3 8 8 4.8 -11.1663
583 1 9.6 6.4 3.2 -11.7808
584 3 11.2 8 4.8 -11.2039
585 1 12.8 6.4 3.2 -11.8124
586 3 14.4 8 4.8 -11.2039
587 1 16 6.4 3.2 -11.8417
588 3 17.6 8 4.8 -11.2054
589 1 19.2 6.4 3.2 -11.7808
590 2 20.8 8 4.8 -9.67226
591 1 22.4 6.4 3.2 -11.5372
592 1 24 8 4.8 -11.6687
593 2 25.6 6.4 3.2 -9.6666
594 1 27.2 8 4.8 -11.783
595 2 28.8 6.4 3.2 -9.74663
596 2 30.4 8 4.8 -9.77037
597 3 32 6.4 3.2 -11.2018
598 1 33.6 8 4.8 -11.6027
599 3 35.2 6.4 3.2 -11.1618
600 1 36.8 8 4.8 -11.5462
601 3 38.4 6.4 3.2 -11.1238
602 1 40 8 4.8 -11.7093
603 3 41.6 6.4 3.2 -11.1648
604 1 43.2 8 4.8 -11.7836
605 2 44.8 6.4 3.2 -9.75638
606 2 46.4 8 4.8 -9.65644
607 1 48 6.4 3.2 -11.4864
608 3 49.6 8 4.8 -11.1385
609 3 0 9.6 3.2 -11.061
610 1 1.6 11.2 4.8 -11.559
611 2 3.2 9.6 3.2 -9.70157
612 2 4.8 11.2 4.8 -9.729
613 1 6.4 9.6 3.2 -11.7005
614 3 8 11.2 4.8 -11.1243
615 1 9.6 9.6 3.2 -11.7808
616 3 11.2 11.2 4.8 -11.2051
617 1 12.8 9.6 3.2 -11.7532
618 2 14.4 11.2 4.8 -9.67676
619 1 16 9.6 3.2 -11.7811
620 3 17.6 11.2 4.8 -11.1265
621 1 19.2 9.6 3.2 -11.7503
622 2 20.8 11.2 4.8 -9.64037
623 1 22.4 9.6 3.2 -11.6635
624 1 24 11.2 4.8 -11.7641
625 3 25.6 9.6 3.2 -11.0787
626 1 27.2 11.2 4.8 -11.7486
627 2 28.8 9.6 3.2 -9.70275
628 2 30.4 11.2 4.8 -9.78702
629 1 32 9.6 3.2 -11.6721
630 3 33.6 11.2 4.8 -10.9855
631 1 35.2 9.6 3.2 -11.5601
632 2 36.8 11.2 4.8 -9.69867
633 3 38.4 9.6 3.2 -11.2034
634 1 40 11.2 4.8 -11.8679
635 3 41.6 9.6 3.2 -11.2423
636 1 43.2 11.2 4.8 -11.8415
637 3 44.8 9.6 3.2 -11.1961
638 1 46.4 11.2 4.8 -11.6963
639 1 48 9.6 3.2 -11.5376
640 2 49.6 11.2 4.8 -9.68596
641 1 0 12.8 3.2 -11.4525
642 1 1.6 14.4 4.8 -11.5611
643 2 3.2 12.8 3.2 -9.53242
644 1 4.8 14.4 4.8 -11.6064
645 1 6.4 12.8 3.2 -11.6371
646 2 8 14.4 4.8 -9.70407
647 1 9.6 12.8 3.2 -11.7844
648 3 11.2 14.4 4.8 -11.1248
649 1 12.8 12.8 3.2 -11.7245
650 2 14.4 14.4 4.8 -9.70683
651 1 16 12.8 3.2 -11.7511
652 3 17.6 14.4 4.8 -11.0852
653 1 19.2 12.8 3.2 -11.6939
654 1 20.8 14.4 4.8 -11.5915
655 2 22.4 12.8 3.2 -9.67577
656 1 24 14.4 4.8 -11.7223
657 3 25.6 12.8 3.2 -11.126
658 1 27.2 14.4 4.8 -11.759
659 1 28.8 12.8 3.2 -11.5418
660 2 30.4 14.4 4.8 -9.70847
661 1 32 12.8 3.2 -11.673
662 3 33.6 14.4 4.8 -11.1528
663 1 35.2 12.8 3.2 -11.743
664 2 36.8 14.4 4.8 -9.83309
665 3 38.4 12.8 3.2 -11.3299
666 1 40 14.4 4.8 -11.8676
667 3 41.6 12.8 3.2 -11.2423
668 1 43.2 14.4 4.8 -11.7811
669 3 44.8 12.8 3.2 -11.206
670 1 46.4 14.4 4.8 -11.7236
671 3 48 12.8 3.2 -11.0798
672 1 49.6 14.4 4.8 -11.6762
673 3 0 16 3.2 -11.1545
674 1 1.6 17.6 4.8 -11.8415
675 3 3.2 16 3.2 -11.0397
676 1 4.8 17.6 4.8 -11.7504
677 2 6.4 16 3.2 -9.67201
678 1 8 17.6 4.8 -11.5628
679 1 9.6 16 3.2 -11.729
680 3 11.2 17.6 4.8 -11.2032
681 1 12.8 16 3.2 -11.7844
682 3 14.4 17.6 4.8 -11.2033
683 1 16 16 3.2 -11.8124
684 3 17.6 17.6 4.8 -11.2045
685 1 19.2 16 3.2 -11.719
686 2 20.8 17.6 4.8 -9.79363
687 2 22.4 16 3.2 -9.73066
688 1 24 17.6 4.8 -11.7007
689 3 25.6 16 3.2 -11.0818
690 1 27.2 17.6 4.8 -11.7841
691 2 28.8 16 3.2 -9.70428
692 1 30.4 17.6 4.8 -11.6096
693 1 32 16 3.2 -11.448
694 1 33.6 17.6 4.8 -11.4501
695 1 35.2 16 3.2 -11.6667
696 1 36.8 17.6 4.8 -11.665
697 3 38.4 16 3.2 -11.2929
698 1 40 17.6 4.8 -11.8412
699 3 41.6 16 3.2 -11.1657
700 1 43.2 17.6 4.8 -11.7178
701 2 44.8 16 3.2 -9.61492
702 1 46.4 17.6 4.8 -11.7074
703 2 48 16 3.2 -9.75061
704 1 49.6 17.6 4.8 -11.8136
705 3 0 19.2 3.2 -11.2668
706 1 1.6 20.8 4.8 -11.8122
707 3 3.2 19.2 3.2 -11.2438
708 1 4.8 20.8 4.8 -11.7808
709 3 6.4 19.2 3.2 -11.1637
710 1 8 20.8 4.8 -11.6298
711 2 9.6 19.2 3.2 -9.75714
712 3 11.2 20.8 4.8 -11.2696
713 1 12.8 19.2 3.2 -11.8679
714 3 14.4 20.8 4.8 -11.2414
715 1 16 19.2 3.2 -11.8417
716 3 17.6 20.8 4.8 -11.2423
717 1 19.2 19.2 3.2 -11.8178
718 3 20.8 20.8 4.8 -11.1252
719 2 22.4 19.2 3.2 -9.6581
720 1 24 20.8 4.8 -11.5666
721 3 25.6 19.2 3.2 -11.1272
722 1 27.2 20.8 4.8 -11.7504
723 3 28.8 19.2 3.2 -11.0824
724 1 30.4 20.8 4.8 -11.7147
725 1 32 19.2 3.2 -11.291
726 1 33.6 20.8 4.8 -11.597
727 1 35.2 19.2 3.2 -11.4347
728 1 36.8 20.8 4.8 -11.7451
729 3 38.4 19.2 3.2 -11.1995
730 1 40 20.8 4.8 -11.6286
731 3 41.6 19.2 3.2 -11.0386
732 1 43.2 20.8 4.8 -11.5283
733 2 44.8 19.2 3.2 -9.73205
734 3 46.4 20.8 4.8 -11.1251
735 2 48 19.2 3.2 -9.79707
736 1 49.6 20.8 4.8 -11.7456
737 2 0 22.4 3.2 -9.72862
738 1 1.6 24 4.8 -11.7804
739 3 3.2 22.4 3.2 -11.2045
740 1 4.8 24 4.8 -11.6738
741 3 6.4 22.4 3.2 -11.1269
742 1 8 24 4.8 -11.516
743 2 9.6 22.4 3.2 -9.69865
744 3 11.2 24 4.8 -11.2029
745 1 12.8 22.4 3.2 -11.8679
746 3 14.4 24 4.8 -11.2036
747 1 16 22.4 3.2 -11.8124
748 3 17.6 24 4.8 -11.2039
749 1 19.2 22.4 3.2 -11.7504
750 3 20.8 24 4.8 -11.1666
751 1 22.4 22.4 3.2 -11.585
752 2 24 24 4.8 -9.6404
753 2 25.6 22.4 3.2 -9.62933
754 1 27.2 24 4.8 -11.6749
755 3 28.8 22.4 3.2 -11.1257
756 1 30.4 24 4.8 -11.7264
757 3 32 22.4 3.2 -11.1255
758 1 33.6 24 4.8 -11.7447
759 3 35.2 22.4 3.2 -11.2027
760 1 36.8 24 4.8 -11.812
761 3 38.4 22.4 3.2 -11.1523
762 1 40 24 4.8 -11.5569
763 1 41.6 22.4 3.2 -11.3854
764 2 43.2 24 4.8 -9.58143
765 1 44.8 22.4 3.2 -11.6147
766 3 46.4 24 4.8 -11.1261
767 1 48 22.4 3.2 -11.6729
768 1 49.6 24 4.8 -11.6298
769 2 0 25.6 3.2 -9.73681
771 3 3.2 25.6 3.2 -11.1684
773 2 6.4 25.6 3.2 -9.6356
775 1 9.6 25.6 3.2 -11.6926
777 1 12.8 25.6 3.2 -11.812
779 1 16 25.6 3.2 -11.7831
781 1 19.2 25.6 3.2 -11.7511
783 1 22.4 25.6 3.2 -11.5538
785 2 25.6 25.6 3.2 -9.53129
787 3 28.8 25.6 3.2 -11.1677
789 3 32 25.6 3.2 -11.1229
791 3 35.2 25.6 3.2 -11.2048
793 2 38.4 25.6 3.2 -9.72833
795 1 41.6 25.6 3.2 -11.6401
797 1 44.8 25.6 3.2 -11.7806
799 1 48 25.6 3.2 -11.693
770 1 1.6 27.2 4.8 -11.7095
801 1 0 28.8 3.2 -11.5469
772 1 4.8 27.2 4.8 -11.7254
803 3 3.2 28.8 3.2 -10.9497
774 2 8 27.2 4.8 -9.75478
805 2 6.4 28.8 3.2 -9.7247
776 3 11.2 27.2 4.8 -11.2372
807 2 9.6 28.8 3.2 -9.84566
778 2 14.4 27.2 4.8 -9.735
809 1 12.8 28.8 3.2 -11.8116
780 3 17.6 27.2 4.8 -11.2039
811 1 16 28.8 3.2 -11.8124
782 3 20.8 27.2 4.8 -11.1657
813 1 19.2 28.8 3.2 -11.7811
784 2 24 27.2 4.8 -9.55938
815 1 22.4 28.8 3.2 -11.5817
817 1 25.6 28.8 3.2 -11.4311
786 1 27.2 27.2 4.8 -11.5832
819 3 28.8 28.8 3.2 -11.166
788 1 30.4 27.2 4.8 -11.7255
821 3 32 28.8 3.2 -11.2045
790 1 33.6 27.2 4.8 -11.7447
823 3 35.2 28.8 3.2 -11.2045
792 1 36.8 27.2 4.8 -11.8144
825 2 38.4 28.8 3.2 -9.72851
794 2 40 27.2 4.8 -9.72087
827 1 41.6 28.8 3.2 -11.5593
796 3 43.2 27.2 4.8 -11.113
829 1 44.8 28.8 3.2 -11.7528
798 3 46.4 27.2 4.8 -11.1666
831 1 48 28.8 3.2 -11.7198
800 3 49.6 27.2 4.8 -11.0677
802 1 1.6 30.4 4.8 -11.5723
833 1 0 32 3.2 -11.6083
804 1 4.8 30.4 4.8 -11.6646
835 2 3.2 32 3.2 -9.67109
806 2 8 30.4 4.8 -9.78426
837 2 6.4 32 3.2 -9.62737
808 3 11.2 30.4 4.8 -11.1899
839 2 9.6 32 3.2 -9.63016
810 3 14.4 30.4 4.8 -11.2045
841 1 12.8 32 3.2 -11.7602
812 3 17.6 30.4 4.8 -11.242
843 1 16 32 3.2 -11.8417
814 3 20.8 30.4 4.8 -11.1657
845 1 19.2 32 3.2 -11.7806
816 2 24 30.4 4.8 -9.55044
847 1 22.4 32 3.2 -11.5985
849 1 25.6 32 3.2 -11.4067
818 2 27.2 30.4 4.8 -9.66561
851 3 28.8 32 3.2 -11.1216
820 1 30.4 30.4 4.8 -11.7878
853 3 32 32 3.2 -11.2435
822 1 33.6 30.4 4.8 -11.8415
855 3 35.2 32 3.2 -11.1642
824 1 36.8 30.4 4.8 -11.7808
857 2 38.4 32 3.2 -9.57969
826 1 40 30.4 4.8 -11.4533
859 1 41.6 32 3.2 -11.4778
828 2 43.2 30.4 4.8 -9.61489
861 1 44.8 32 3.2 -11.7842
830 3 46.4 30.4 4.8 -11.1673
863 1 48 32 3.2 -11.7811
832 2 49.6 30.4 4.8 -9.66158
834 3 1.6 33.6 4.8 -11.1543
865 1 0 35.2 3.2 -11.812
836 1 4.8 33.6 4.8 -11.6167
867 1 3.2 35.2 3.2 -11.6075
838 1 8 33.6 4.8 -11.5604
869 2 6.4 35.2 3.2 -9.53407
840 1 11.2 33.6 4.8 -11.5297
871 1 9.6 35.2 3.2 -11.5656
842 3 14.4 33.6 4.8 -11.1226
873 1 12.8 35.2 3.2 -11.7444
844 3 17.6 33.6 4.8 -11.2048
875 1 16 35.2 3.2 -11.7806
846 3 20.8 33.6 4.8 -11.0416
877 1 19.2 35.2 3.2 -11.6383
848 1 24 33.6 4.8 -11.4024
879 2 22.4 35.2 3.2 -9.57128
881 2 25.6 35.2 3.2 -9.52578
850 2 27.2 33.6 4.8 -9.57296
883 2 28.8 35.2 3.2 -9.69348
852 1 30.4 33.6 4.8 -11.6693
885 3 32 35.2 3.2 -11.1648
854 1 33.6 33.6 4.8 -11.8122
887 3 35.2 35.2 3.2 -11.2051
856 1 36.8 33.6 4.8 -11.8124
889 3 38.4 35.2 3.2 -11.0819
858 1 40 33.6 4.8 -11.6403
891 3 41.6 35.2 3.2 -11.2473
860 3 43.2 33.6 4.8 -11.1907
893 1 44.8 35.2 3.2 -11.7771
862 3 46.4 33.6 4.8 -11.166
895 1 48 35.2 3.2 -11.7806
864 3 49.6 33.6 4.8 -11.2063
866 2 1.6 36.8 4.8 -9.59392
897 1 0 38.4 3.2 -11.6461
868 1 4.8 36.8 4.8 -11.538
899 1 3.2 38.4 3.2 -11.5527
870 1 8 36.8 4.8 -11.6578
901 2 6.4 38.4 3.2 -9.63348
872 3 11.2 36.8 4.8 -11.1495
903 1 9.6 38.4 3.2 -11.6895
874 3 14.4 36.8 4.8 -11.0816
905 1 12.8 38.4 3.2 -11.6734
876 2 17.6 36.8 4.8 -9.69308
907 1 16 38.4 3.2 -11.6892
878 1 20.8 36.8 4.8 -11.5261
909 2 19.2 38.4 3.2 -9.67447
880 1 24 36.8 4.8 -11.5439
911 3 22.4 38.4 3.2 -11.1909
913 3 25.6 38.4 3.2 -11.2021
882 1 27.2 36.8 4.8 -11.6081
915 3 28.8 38.4 3.2 -11.1657
884 1 30.4 36.8 4.8 -11.6406
917 3 32 38.4 3.2 -11.2042
886 1 33.6 36.8 4.8 -11.7831
919 2 35.2 38.4 3.2 -9.73522
888 1 36.8 36.8 4.8 -11.8124
921 3 38.4 38.4 3.2 -11.1651
890 1 40 36.8 4.8 -11.814
923 3 41.6 38.4 3.2 -11.2648
892 2 43.2 36.8 4.8 -9.81605
925 2 44.8 38.4 3.2 -9.69286
894 2 46.4 36.8 4.8 -9.70662
927 1 48 38.4 3.2 -11.5854
896 3 49.6 36.8 4.8 -11.0824
898 2 1.6 40 4.8 -9.56993
929 1 0 41.6 3.2 -11.6681
900 1 4.8 40 4.8 -11.4638
931 1 3.2 41.6 3.2 -11.5867
902 1 8 40 4.8 -11.6408
933 1 6.4 41.6 3.2 -11.5988
904 2 11.2 40 4.8 -9.76463
935 1 9.6 41.6 3.2 -11.7183
906 1 14.4 40 4.8 -11.5014
937 1 12.8 41.6 3.2 -11.729
908 3 17.6 40 4.8 -11.1218
939 2 16 41.6 3.2 -9.60125
910 3 20.8 40 4.8 -11.1872
941 1 19.2 41.6 3.2 -11.5005
912 2 24 40 4.8 -9.77134
943 2 22.4 41.6 3.2 -9.78187
945 2 25.6 41.6 3.2 -9.72849
914 1 27.2 40 4.8 -11.6539
947 3 28.8 41.6 3.2 -11.1657
916 1 30.4 40 4.8 -11.7811
949 3 32 41.6 3.2 -11.2426
918 1 33.6 40 4.8 -11.8124
951 3 35.2 41.6 3.2 -11.1236
920 1 36.8 40 4.8 -11.8124
953 3 38.4 41.6 3.2 -11.2429
922 1 40 40 4.8 -11.8122
955 3 41.6 41.6 3.2 -11.2048
924 1 43.2 40 4.8 -11.7878
957 3 44.8 41.6 3.2 -11.1263
926 1 46.4 40 4.8 -11.6587
959 2 48 41.6 3.2 -9.59946
928 1 49.6 40 4.8 -11.5534
930 2 1.6 43.2 4.8 -9.75926
961 2 0 44.8 3.2 -9.78487
932 1 4.8 43.2 4.8 -11.574
963 1 3.2 44.8 3.2 -11.7217
934 2 8 43.2 4.8 -9.72904
965 1 6.4 44.8 3.2 -11.739
936 3 11.2 43.2 4.8 -11.2307
967 1 9.6 44.8 3.2 -11.8118
938 2 14.4 43.2 4.8 -9.70321
969 1 12.8 44.8 3.2 -11.812
940 3 17.6 43.2 4.8 -11.0818
971 1 16 44.8 3.2 -11.7602
942 2 20.8 43.2 4.8 -9.75944
973 1 19.2 44.8 3.2 -11.6821
944 2 24 43.2 4.8 -9.66415
975 2 22.4 44.8 3.2 -9.73441
977 2 25.6 44.8 3.2 -9.62918
946 1 27.2 43.2 4.8 -11.609
979 3 28.8 44.8 3.2 -11.126
948 1 30.4 43.2 4.8 -11.7808
981 3 32 44.8 3.2 -11.2039
950 1 33.6 43.2 4.8 -11.8124
983 2 35.2 44.8 3.2 -9.73511
952 1 36.8 43.2 4.8 -11.8124
985 3 38.4 44.8 3.2 -11.1652
954 1 40 43.2 4.8 -11.8124
987 2 41.6 44.8 3.2 -9.77603
956 1 43.2 43.2 4.8 -11.8122
989 3 44.8 44.8 3.2 -11.1648
958 1 46.4 43.2 4.8 -11.8122
991 3 48 44.8 3.2 -11.1936
960 1 49.6 43.2 4.8 -11.7318
962 2 1.6 46.4 4.8 -9.66351
993 1 0 48 3.2 -11.751
964 2 4.8 46.4 4.8 -9.70313
995 1 3.2 48 3.2 -11.7498
966 3 8 46.4 4.8 -11.1656
997 1 6.4 48 3.2 -11.8121
968 3 11.2 46.4 4.8 -11.2054
999 1 9.6 48 3.2 -11.8417
970 3 14.4 46.4 4.8 -11.1648
1001 1 12.8 48 3.2 -11.8417
972 3 17.6 46.4 4.8 -11.2435
1003 1 16 48 3.2 -11.8417
974 3 20.8 46.4 4.8 -11.1648
1005 1 19.2 48 3.2 -11.8413
976 1 24 46.4 4.8 -11.4964
1007 1 22.4 48 3.2 -11.5942
1009 2 25.6 48 3.2 -9.59403
978 1 27.2 46.4 4.8 -11.5802
1011 3 28.8 48 3.2 -11.1257
980 1 30.4 46.4 4.8 -11.7811
1013 3 32 48 3.2 -11.2423
982 1 33.6 46.4 4.8 -11.8124
1015 3 35.2 48 3.2 -11.2033
984 1 36.8 46.4 4.8 -11.8124
1017 3 38.4 48 3.2 -11.2429
986 1 40 46.4 4.8 -11.8122
1019 3 41.6 48 3.2 -11.1633
988 1 43.2 46.4 4.8 -11.8423
1021 3 44.8 48 3.2 -11.162
990 1 46.4 46.4 4.8 -11.7801
1023 2 48 48 3.2 -9.76046
992 1 49.6 46.4 4.8 -11.6601
994 2 1.6 49.6 4.8 -9.69679
996 3 4.8 49.6 4.8 -11.1214
998 3 8 49.6 4.8 -11.2435
1000 3 11.2 49.6 4.8 -11.2417
1002 3 14.4 49.6 4.8 -11.2417
1004 3 17.6 49.6 4.8 -11.242
1006 3 20.8 49.6 4.8 -11.0819
1008 1 24 49.6 4.8 -11.4709
1010 1 27.2 49.6 4.8 -11.6971
1012 1 30.4 49.6 4.8 -11.7808
1014 1 33.6 49.6 4.8 -11.8417
1016 1 36.8 49.6 4.8 -11.8417
1018 1 40 49.6 4.8 -11.8417
1020 1 43.2 49.6 4.8 -11.8415
1022 1 46.4 49.6 4.8 -11.7596
1024 2 49.6 49.6 4.8 -9.66168
1025 1 0 0 6.4 -11.5485
1026 2 1.6 1.6 8 -9.77202
1027 2 3.2 0 6.4 -9.71209
1028 2 4.8 1.6 8 -9.75325
1029 1 6.4 0 6.4 -11.7495
1030 3 8 1.6 8 -11.0819
1031 1 9.6 0 6.4 -11.8417
1032 3 11.2 1.6 8 -11.2423
1033 1 12.8 0 6.4 -11.8417
1034 3 14.4 1.6 8 -11.242
1035 1 16 0 6.4 -11.8417
1036 3 17.6 1.6 8 -11.2048
1037 1 19.2 0 6.4 -11.8124
1038 3 20.8 1.6 8 -11.1634
1039 1 22.4 0 6.4 -11.5879
1040 2 24 1.6 8 -9.73846
1041 2 25.6 0 6.4 -9.69439
1042 2 27.2 1.6 8 -9.80399
1043 2 28.8 0 6.4 -9.72899
1044 1 30.4 1.6 8 -11.5573
1045 3 32 0 6.4 -11.0816
1046 1 33.6 1.6 8 -11.5234
1047 3 35.2 0 6.4 -11.2432
1048 1 36.8 1.6 8 -11.7501
1049 3 38.4 0 6.4 -11.242
1050 1 40 1.6 8 -11.7844
1051 3 41.6 0 6.4 -11.2036
1052 1 43.2 1.6 8 -11.7811
1053 3 44.8 0 6.4 -11.1648
1054 1 46.4 1.6 8 -11.7532
1055 2 48 0 6.4 -9.62834
1056 1 49.6 1.6 8 -11.6836
1057 2 0 3.2 6.4 -9.68236
1058 1 1.6 4.8 8 -11.4805
1059 1 3.2 3.2 6.4 -11.7237
1060 2 4.8 4.8 8 -9.60311
1061 1 6.4 3.2 6.4 -11.7804
1062 3 8 4.8 8 -11.1669
1063 1 9.6 3.2 6.4 -11.8417
1064 3 11.2 4.8 8 -11.242
1065 1 12.8 3.2 6.4 -11.8417
1066 3 14.4 4.8 8 -11.242
1067 1 16 3.2 6.4 -11.8417
1068 3 17.6 4.8 8 -11.1669
1069 1 19.2 3.2 6.4 -11.7504
1070 2 20.8 4.8 8 -9.67129
1071 1 22.4 3.2 6.4 -11.538
1072 1 24 4.8 8 -11.7005
1073 2 25.6 3.2 6.4 -9.72359
1074 1 27.2 4.8 8 -11.7559
1075 3 28.8 3.2 6.4 -11.2031
1076 1 30.4 4.8 8 -11.6549
1077 3 32 3.2 6.4 -11.1258
1078 1 33.6 4.8 8 -11.5677
1079 3 35.2 3.2 6.4 -11.1648
1080 2 36.8 4.8 8 -9.55982
1081 3 38.4 3.2 6.4 -11.1643
1082 1 40 4.8 8 -11.6187
1083 3 41.6 3.2 6.4 -11.2051
1084 1 43.2 4.8 8 -11.7511
1085 3 44.8 3.2 6.4 -11.1663
1086 1 46.4 4.8 8 -11.6103
1087 2 48 3.2 6.4 -9.63366
1088 1 49.6 4.8 8 -11.54
1089 1 0 6.4 6.4 -11.4545
1090 1 1.6 8 8 -11.4397
1091 1 3.2 6.4 6.4 -11.4311
1092 1 4.8 8 8 -11.455
1093 1 6.4 6.4 6.4 -11.6744
1094 3 8 8 8 -11.0381
1095 1 9.6 6.4 6.4 -11.8417
1096 3 11.2 8 8 -11.2045
1097 1 12.8 6.4 6.4 -11.8417
1098 3 14.4 8 8 -11.2051
1099 1 16 6.4 6.4 -11.8417
1100 3 17.6 8 8 -11.0868
1101 1 19.2 6.4 6.4 -11.6927
1102 1 20.8 8 8 -11.6767