ITEM: TIMESTEP
0
ITEM: NUMBER OF ATOMS
8192
ITEM: BOX BOUNDS pp pp pp
0.0000000000000000e+00 5.1200000000000003e+01
0.0000000000000000e+00 5.1200000000000003e+01
0.0000000000000000e+00 5.1200000000000003e+01
ITEM: ATOMS id type x y z c_eng
1 2 0 0 0 -9.96261
2 2 1.6 1.6 1.6 -9.95909
3 2 3.2 0 0 -9.95939
4 1 4.8 1.6 1.6 -11.8685
5 2 6.4 0 0 -9.97299
6 1 8 1.6 1.6 -11.8649
7 3 9.6 0 0 -11.5359
8 3 11.2 1.6 1.6 -11.4242
9 2 12.8 0 0 -10.0154
10 2 14.4 1.6 1.6 -10.024
11 2 16 0 0 -10.0444
12 3 17.6 1.6 1.6 -11.587
13 3 19.2 0 0 -11.5347
14 3 20.8 1.6 1.6 -11.5209
15 3 22.4 0 0 -11.5141
16 3 24 1.6 1.6 -11.4954
17 3 25.6 0 0 -11.5739
18 1 27.2 1.6 1.6 -11.9373
19 3 28.8 0 0 -11.5596
20 2 30.4 1.6 1.6 -9.96145
21 3 32 0 0 -11.4712
22 3 33.6 1.6 1.6 -11.4651
23 2 35.2 0 0 -9.98156
24 2 36.8 1.6 1.6 -9.98294
25 2 38.4 0 0 -9.99589
26 2 40 1.6 1.6 -10.0154
27 2 41.6 0 0 -9.98672
28 2 43.2 1.6 1.6 -9.96009
29 2 44.8 0 0 -9.98499
30 2 46.4 1.6 1.6 -9.99574
31 2 48 0 0 -9.98236
32 2 49.6 1.6 1.6 -9.9283
33 2 0 3.2 0 -9.96674
34 3 1.6 4.8 1.6 -11.4754
35 3 3.2 3.2 0 -11.5114
36 3 4.8 4.8 1.6 -11.4425
37 3 6.4 3.2 0 -11.5667
38 1 8 4.8 1.6 -11.9393
39 3 9.6 3.2 0 -11.5792
40 1 11.2 4.8 1.6 -11.9537
41 3 12.8 3.2 0 -11.6224
42 2 14.4 4.8 1.6 -10.0149
43 3 16 3.2 0 -11.5623
44 3 17.6 4.8 1.6 -11.5288
45 3 19.2 3.2 0 -11.5333
46 2 20.8 4.8 1.6 -9.95518
47 3 22.4 3.2 0 -11.5541
48 1 24 4.8 1.6 -11.9279
49 3 25.6 3.2 0 -11.5228
50 1 27.2 4.8 1.6 -11.913
51 3 28.8 3.2 0 -11.4662
52 2 30.4 4.8 1.6 -9.93074
53 3 32 3.2 0 -11.4579
54 3 33.6 4.8 1.6 -11.425
55 2 35.2 3.2 0 -9.96101
56 2 36.8 4.8 1.6 -9.98418
57 2 38.4 3.2 0 -10.0178
58 2 40 4.8 1.6 -10.0433
59 2 41.6 3.2 0 -10.0014
60 2 43.2 4.8 1.6 -10.0019
61 2 44.8 3.2 0 -9.97184
62 2 46.4 4.8 1.6 -9.98853
63 2 48 3.2 0 -9.97181
64 2 49.6 4.8 1.6 -9.98849
65 2 0 6.4 0 -9.9871
66 2 1.6 8 1.6 -9.92362
67 2 3.2 6.4 0 -9.94899
68 2 4.8 8 1.6 -9.98266
69 3 6.4 6.4 0 -11.6013
70 3 8 8 1.6 -11.5655
71 3 9.6 6.4 0 -11.6107
72 2 11.2 8 1.6 -10.0461
73 3 12.8 6.4 0 -11.5638
74 3 14.4 8 1.6 -11.5456
75 2 16 6.4 0 -9.99352
76 2 17.6 8 1.6 -10.0334
77 2 19.2 6.4 0 -10.003
78 2 20.8 8 1.6 -10.0201
79 2 22.4 6.4 0 -9.99787
80 2 24 8 1.6 -9.94749
81 2 25.6 6.4 0 -10.0252
82 3 27.2 8 1.6 -11.5293
83 3 28.8 6.4 0 -11.5788
84 2 30.4 8 1.6 -10.0019
85 3 32 6.4 0 -11.4386
86 2 33.6 8 1.6 -9.95663
87 3 35.2 6.4 0 -11.5321
88 2 36.8 8 1.6 -10.0057
89 3 38.4 6.4 0 -11.5273
90 3 40 8 1.6 -11.5356
91 2 41.6 6.4 0 -10.0247
92 3 43.2 8 1.6 -11.5489
93 2 44.8 6.4 0 -9.97413
94 2 46.4 8 1.6 -10.0328
95 2 48 6.4 0 -10.0204
96 2 49.6 8 1.6 -10.0128
97 2 0 9.6 0 -9.96954
98 2 1.6 11.2 1.6 -10.0015
99 2 3.2 9.6 0 -9.9575
100 3 4.8 11.2 1.6 -11.5607
101 2 6.4 9.6 0 -10.0291
102 3 8 11.2 1.6 -11.6534
103 2 9.6 9.6 0 -10.0167
104 3 11.2 11.2 1.6 -11.6208
105 2 12.8 9.6 0 -10.0188
106 3 14.4 11.2 1.6 -11.5462
107 1 16 9.6 0 -11.9107
108 3 17.6 11.2 1.6 -11.5367
109 2 19.2 9.6 0 -9.93206
110 2 20.8 11.2 1.6 -10.0251
111 2 22.4 9.6 0 -9.97707
112 1 24 11.2 1.6 -11.9084
113 2 25.6 9.6 0 -9.97705
114 2 27.2 11.2 1.6 -9.94932
115 2 28.8 9.6 0 -9.93907
116 2 30.4 11.2 1.6 -9.98212
117 1 32 9.6 0 -11.8785
118 2 33.6 11.2 1.6 -9.94724
119 2 35.2 9.6 0 -9.95634
120 2 36.8 11.2 1.6 -9.95157
121 1 38.4 9.6 0 -11.856
122 2 40 11.2 1.6 -9.98059
123 2 41.6 9.6 0 -9.96583
124 3 43.2 11.2 1.6 -11.529
125 3 44.8 9.6 0 -11.5628
126 3 46.4 11.2 1.6 -11.5843
127 3 48 9.6 0 -11.5531
128 3 49.6 11.2 1.6 -11.5617
129 1 0 12.8 0 -11.8815
130 3 1.6 14.4 1.6 -11.45
131 2 3.2 12.8 0 -9.96453
132 3 4.8 14.4 1.6 -11.5919
133 3 6.4 12.8 0 -11.5707
134 3 8 14.4 1.6 -11.5294
135 3 9.6 12.8 0 -11.611
136 3 11.2 14.4 1.6 -11.4685
137 3 12.8 12.8 0 -11.5779
138 2 14.4 14.4 1.6 -10.0166
139 3 16 12.8 0 -11.4869
140 3 17.6 14.4 1.6 -11.5298
141 2 19.2 12.8 0 -10.0515
142 3 20.8 14.4 1.6 -11.5754
143 3 22.4 12.8 0 -11.5348
144 2 24 14.4 1.6 -9.93776
145 2 25.6 12.8 0 -9.95304
146 1 27.2 14.4 1.6 -11.8761
147 2 28.8 12.8 0 -10.0105
148 2 30.4 14.4 1.6 -9.94507
149 3 32 12.8 0 -11.5125
150 1 33.6 14.4 1.6 -11.9665
151 3 35.2 12.8 0 -11.5202
152 2 36.8 14.4 1.6 -9.97109
153 2 38.4 12.8 0 -9.97525
154 2 40 14.4 1.6 -9.96948
155 2 41.6 12.8 0 -10.0227
156 3 43.2 14.4 1.6 -11.5716
157 2 44.8 12.8 0 -10.0311
158 3 46.4 14.4 1.6 -11.5447
159 3 48 12.8 0 -11.5534
160 2 49.6 14.4 1.6 -9.99264
161 1 0 16 0 -11.8558
162 3 1.6 17.6 1.6 -11.4968
163 2 3.2 16 0 -9.97863
164 3 4.8 17.6 1.6 -11.4514
165 3 6.4 16 0 -11.4945
166 2 8 17.6 1.6 -9.96366
167 3 9.6 16 0 -11.4429
168 2 11.2 17.6 1.6 -9.94147
169 2 12.8 16 0 -9.92999
170 2 14.4 17.6 1.6 -9.94537
171 3 16 16 0 -11.4207
172 2 17.6 17.6 1.6 -9.99014
173 3 19.2 16 0 -11.5212
174 2 20.8 17.6 1.6 -9.98266
175 2 22.4 16 0 -10.0359
176 2 24 17.6 1.6 -9.99584
177 2 25.6 16 0 -9.99158
178 2 27.2 17.6 1.6 -9.97753
179 2 28.8 16 0 -9.97936
180 2 30.4 17.6 1.6 -10.0056
181 3 32 16 0 -11.5134
182 2 33.6 17.6 1.6 -9.98894
183 3 35.2 16 0 -11.6121
184 3 36.8 17.6 1.6 -11.5071
185 2 38.4 16 0 -9.97223
186 2 40 17.6 1.6 -9.9735
187 3 41.6 16 0 -11.5293
188 2 43.2 17.6 1.6 -9.98624
189 3 44.8 16 0 -11.5531
190 2 46.4 17.6 1.6 -9.99676
191 2 48 16 0 -9.97988
192 2 49.6 17.6 1.6 -9.98878
193 2 0 19.2 0 -9.99427
194 2 1.6 20.8 1.6 -10.0049
195 2 3.2 19.2 0 -9.98629
196 2 4.8 20.8 1.6 -9.98472
197 3 6.4 19.2 0 -11.5301
198 2 8 20.8 1.6 -10.0335
199 3 9.6 19.2 0 -11.6093
200 3 11.2 20.8 1.6 -11.5382
201 3 12.8 19.2 0 -11.4647
202 2 14.4 20.8 1.6 -10.0088
203 2 16 19.2 0 -9.9635
204 2 17.6 20.8 1.6 -9.96231
205 2 19.2 19.2 0 -10.0145
206 1 20.8 20.8 1.6 -11.9239
207 2 22.4 19.2 0 -9.92607
208 2 24 20.8 1.6 -9.92383
209 2 25.6 19.2 0 -9.98907
210 3 27.2 20.8 1.6 -11.5237
211 2 28.8 19.2 0 -9.9886
212 2 30.4 20.8 1.6 -9.94129
213 2 32 19.2 0 -9.99745
214 1 33.6 20.8 1.6 -11.8767
215 3 35.2 19.2 0 -11.5271
216 2 36.8 20.8 1.6 -10.0191
217 1 38.4 19.2 0 -11.9633
218 2 40 20.8 1.6 -9.91871
219 3 41.6 19.2 0 -11.5523
220 1 43.2 20.8 1.6 -11.9038
221 3 44.8 19.2 0 -11.5894
222 3 46.4 20.8 1.6 -11.5266
223 2 48 19.2 0 -10.0265
224 3 49.6 20.8 1.6 -11.5342
225 2 0 22.4 0 -9.95566
226 3 1.6 24 1.6 -11.5041
227 1 3.2 22.4 0 -11.8779
228 2 4.8 24 1.6 -9.97319
229 2 6.4 22.4 0 -9.96773
230 2 8 24 1.6 -9.98972
231 3 9.6 22.4 0 -11.5864
232 2 11.2 24 1.6 -10.0394
233 2 12.8 22.4 0 -10.0287
234 2 14.4 24 1.6 -9.97407
235 2 16 22.4 0 -10.0118
236 1 17.6 24 1.6 -11.9569
237 3 19.2 22.4 0 -11.5481
238 3 20.8 24 1.6 -11.4474
239 2 22.4 22.4 0 -10.01
240 1 24 24 1.6 -11.9369
241 2 25.6 22.4 0 -10.0261
242 2 27.2 24 1.6 -10.0311
243 2 28.8 22.4 0 -10.0069
244 3 30.4 24 1.6 -11.5639
245 2 32 22.4 0 -9.96333
246 2 33.6 24 1.6 -10.0097
247 3 35.2 22.4 0 -11.5379
248 3 36.8 24 1.6 -11.4917
249 3 38.4 22.4 0 -11.5795
250 2 40 24 1.6 -10.0049
251 3 41.6 22.4 0 -11.5683
252 1 43.2 24 1.6 -11.8508
253 3 44.8 22.4 0 -11.5446
254 2 46.4 24 1.6 -9.98687
255 2 48 22.4 0 -10.0059
256 2 49.6 24 1.6 -10.0352
257 2 0 25.6 0 -10.0018
259 2 3.2 25.6 0 -9.94768
261 2 6.4 25.6 0 -10.0035
263 2 9.6 25.6 0 -10.027
265 2 12.8 25.6 0 -9.96669
267 3 16 25.6 0 -11.4416
269 3 19.2 25.6 0 -11.5548
271 2 22.4 25.6 0 -10.0485
273 3 25.6 25.6 0 -11.569
275 3 28.8 25.6 0 -11.5274
277 2 32 25.6 0 -10.0321
279 3 35.2 25.6 0 -11.5137
281 3 38.4 25.6 0 -11.5408
283 2 41.6 25.6 0 -10.0137
285 2 44.8 25.6 0 -9.9752
287 2 48 25.6 0 -9.98853
258 2 1.6 27.2 1.6 -9.99593
289 2 0 28.8 0 -9.98853
260 2 4.8 27.2 1.6 -10.0326
291 2 3.2 28.8 0 -9.99595
262 3 8 27.2 1.6 -11.501
293 3 6.4 28.8 0 -11.4858
264 3 11.2 27.2 1.6 -11.4919
295 2 9.6 28.8 0 -9.97162
266 2 14.4 27.2 1.6 -9.99329
297 2 12.8 28.8 0 -9.90431
268 2 17.6 27.2 1.6 -9.95359
299 1 16 28.8 0 -11.9016
270 2 20.8 27.2 1.6 -9.9928
301 2 19.2 28.8 0 -9.92633
272 3 24 27.2 1.6 -11.5655
303 3 22.4 28.8 0 -11.4741
305 3 25.6 28.8 0 -11.5989
274 3 27.2 27.2 1.6 -11.6001
307 2 28.8 28.8 0 -10.024
276 3 30.4 27.2 1.6 -11.5985
309 1 32 28.8 0 -11.9991
278 2 33.6 27.2 1.6 -10.0026
311 2 35.2 28.8 0 -9.98505
280 2 36.8 27.2 1.6 -9.98039
313 3 38.4 28.8 0 -11.5204
282 2 40 27.2 1.6 -9.98395
315 2 41.6 28.8 0 -9.99598
284 2 43.2 27.2 1.6 -9.92831
317 2 44.8 28.8 0 -9.98849
286 2 46.4 27.2 1.6 -9.97813
319 2 48 28.8 0 -9.9696
288 2 49.6 27.2 1.6 -10.0006
290 2 1.6 30.4 1.6 -9.93661
321 3 0 32 0 -11.4572
292 3 4.8 30.4 1.6 -11.5173
323 2 3.2 32 0 -10.0282
294 1 8 30.4 1.6 -11.9272
325 3 6.4 32 0 -11.5557
296 2 11.2 30.4 1.6 -9.98676
327 3 9.6 32 0 -11.5431
298 2 14.4 30.4 1.6 -9.96187
329 2 12.8 32 0 -10.0503
300 2 17.6 30.4 1.6 -9.96003
331 3 16 32 0 -11.4657
302 2 20.8 30.4 1.6 -9.84271
333 1 19.2 32 0 -11.8137
304 3 24 30.4 1.6 -11.5244
335 1 22.4 32 0 -11.8282
337 2 25.6 32 0 -10.0078
306 3 27.2 30.4 1.6 -11.5894
339 3 28.8 32 0 -11.5596
308 3 30.4 30.4 1.6 -11.5804
341 3 32 32 0 -11.4779
310 3 33.6 30.4 1.6 -11.549
343 1 35.2 32 0 -11.9105
312 2 36.8 30.4 1.6 -10.0008
345 2 38.4 32 0 -9.9809
314 2 40 30.4 1.6 -9.99587
347 2 41.6 32 0 -9.98413
316 2 43.2 30.4 1.6 -9.97819
349 3 44.8 32 0 -11.5374
318 2 46.4 30.4 1.6 -9.99587
351 2 48 32 0 -10.0352
320 2 49.6 30.4 1.6 -9.98384
322 1 1.6 33.6 1.6 -11.915
353 2 0 35.2 0 -10.0083
324 2 4.8 33.6 1.6 -9.99389
355 3 3.2 35.2 0 -11.5192
326 3 8 33.6 1.6 -11.5204
357 3 6.4 35.2 0 -11.597
328 3 11.2 33.6 1.6 -11.5433
359 3 9.6 35.2 0 -11.6218
330 2 14.4 33.6 1.6 -10.0305
361 3 12.8 35.2 0 -11.5864
332 3 17.6 33.6 1.6 -11.483
363 3 16 35.2 0 -11.5979
334 2 20.8 33.6 1.6 -9.84986
365 2 19.2 35.2 0 -9.99156
336 2 24 33.6 1.6 -9.99262
367 2 22.4 35.2 0 -9.94696
369 2 25.6 35.2 0 -10.0037
338 3 27.2 33.6 1.6 -11.5292
371 2 28.8 35.2 0 -9.99558
340 1 30.4 33.6 1.6 -11.9573
373 3 32 35.2 0 -11.4713
342 3 33.6 33.6 1.6 -11.4672
375 1 35.2 35.2 0 -11.9227
344 2 36.8 33.6 1.6 -9.96688
377 2 38.4 35.2 0 -9.93682
346 2 40 33.6 1.6 -9.95153
379 1 41.6 35.2 0 -11.8748
348 2 43.2 33.6 1.6 -9.99733
381 3 44.8 35.2 0 -11.5658
350 3 46.4 33.6 1.6 -11.5622
383 3 48 35.2 0 -11.5979
352 2 49.6 33.6 1.6 -9.96005
354 3 1.6 36.8 1.6 -11.5412
385 2 0 38.4 0 -10.0406
356 2 4.8 36.8 1.6 -10.0241
387 2 3.2 38.4 0 -10.0203
358 2 8 36.8 1.6 -9.99821
389 2 6.4 38.4 0 -9.99731
360 2 11.2 36.8 1.6 -10.016
391 2 9.6 38.4 0 -10.0474
362 2 14.4 36.8 1.6 -9.97518
393 3 12.8 38.4 0 -11.4736
364 2 17.6 36.8 1.6 -10.0392
395 2 16 38.4 0 -9.94909
366 2 20.8 36.8 1.6 -10.0154
397 2 19.2 38.4 0 -9.9819
368 2 24 36.8 1.6 -9.94769
399 2 22.4 38.4 0 -9.97819
401 2 25.6 38.4 0 -9.96846
370 2 27.2 36.8 1.6 -9.94865
403 2 28.8 38.4 0 -9.89811
372 1 30.4 36.8 1.6 -11.8846
405 2 32 38.4 0 -9.97762
374 3 33.6 36.8 1.6 -11.5583
407 3 35.2 38.4 0 -11.5156
376 3 36.8 36.8 1.6 -11.5751
409 2 38.4 38.4 0 -9.9974
378 2 40 36.8 1.6 -9.99852
411 3 41.6 38.4 0 -11.35
380 2 43.2 36.8 1.6 -9.99808
413 3 44.8 38.4 0 -11.6107
382 3 46.4 36.8 1.6 -11.6092
415 3 48 38.4 0 -11.6435
384 3 49.6 36.8 1.6 -11.5864
386 2 1.6 40 1.6 -10.0049
417 2 0 41.6 0 -9.98503
388 2 4.8 40 1.6 -9.96045
419 3 3.2 41.6 0 -11.4276
390 3 8 40 1.6 -11.5154
421 2 6.4 41.6 0 -10.0071
392 3 11.2 40 1.6 -11.5295
423 3 9.6 41.6 0 -11.6088
394 1 14.4 40 1.6 -11.8959
425 2 12.8 41.6 0 -10.0413
396 2 17.6 40 1.6 -9.92347
427 2 16 41.6 0 -9.91045
398 2 20.8 40 1.6 -9.99712
429 2 19.2 41.6 0 -9.9566
400 2 24 40 1.6 -9.9352
431 2 22.4 41.6 0 -9.98492
433 3 25.6 41.6 0 -11.5
402 1 27.2 40 1.6 -11.8991
435 3 28.8 41.6 0 -11.4016
404 2 30.4 40 1.6 -9.87361
437 2 32 41.6 0 -10.0164
406 2 33.6 40 1.6 -10.0101
439 3 35.2 41.6 0 -11.5487
408 2 36.8 40 1.6 -9.97829
441 2 38.4 41.6 0 -9.99188
410 2 40 40 1.6 -10.0313
443 1 41.6 41.6 0 -11.9508
412 3 43.2 40 1.6 -11.548
445 2 44.8 41.6 0 -10.0126
414 3 46.4 40 1.6 -11.5906
447 3 48 41.6 0 -11.5169
416 2 49.6 40 1.6 -10.0113
418 2 1.6 43.2 1.6 -9.96774
449 2 0 44.8 0 -9.99476
420 1 4.8 43.2 1.6 -11.8909
451 2 3.2 44.8 0 -9.97211
422 3 8 43.2 1.6 -11.5075
453 2 6.4 44.8 0 -10.0211
424 2 11.2 43.2 1.6 -10.0777
455 3 9.6 44.8 0 -11.5741
426 3 14.4 43.2 1.6 -11.5251
457 3 12.8 44.8 0 -11.5891
428 3 17.6 43.2 1.6 -11.4536
459 1 16 44.8 0 -11.9741
430 3 20.8 43.2 1.6 -11.5197
461 2 19.2 44.8 0 -9.9627
432 3 24 43.2 1.6 -11.5661
463 3 22.4 44.8 0 -11.5419
465 3 25.6 44.8 0 -11.478
434 1 27.2 43.2 1.6 -11.9429
467 3 28.8 44.8 0 -11.5534
436 2 30.4 43.2 1.6 -9.9453
469 3 32 44.8 0 -11.5524
438 2 33.6 43.2 1.6 -10.0204
471 3 35.2 44.8 0 -11.5619
440 2 36.8 43.2 1.6 -10.0304
473 2 38.4 44.8 0 -10.0205
442 3 40 43.2 1.6 -11.5248
475 2 41.6 44.8 0 -9.95624
444 3 43.2 43.2 1.6 -11.5538
477 2 44.8 44.8 0 -10.0072
446 3 46.4 43.2 1.6 -11.5867
479 2 48 44.8 0 -10.0228
448 3 49.6 43.2 1.6 -11.5345
450 2 1.6 46.4 1.6 -9.9915
481 2 0 48 0 -9.95523
452 2 4.8 46.4 1.6 -9.95731
483 1 3.2 48 0 -11.8246
454 3 8 46.4 1.6 -11.5243
485 2 6.4 48 0 -9.93684
456 2 11.2 46.4 1.6 -10.028
487 2 9.6 48 0 -10.0323
458 3 14.4 46.4 1.6 -11.571
489 3 12.8 48 0 -11.5285
460 3 17.6 46.4 1.6 -11.547
491 3 16 48 0 -11.5636
462 2 20.8 46.4 1.6 -10.0253
493 3 19.2 48 0 -11.5993
464 2 24 46.4 1.6 -10.0149
495 2 22.4 48 0 -10.0471
497 2 25.6 48 0 -10.0056
466 1 27.2 46.4 1.6 -11.9176
499 3 28.8 48 0 -11.5459
468 1 30.4 46.4 1.6 -11.9688
501 2 32 48 0 -10.0565
470 3 33.6 46.4 1.6 -11.439
503 2 35.2 48 0 -9.98295
472 2 36.8 46.4 1.6 -10.0036
505 2 38.4 48 0 -9.9696
474 2 40 46.4 1.6 -9.98723
507 2 41.6 48 0 -9.97317
476 1 43.2 46.4 1.6 -11.9162
509 2 44.8 48 0 -10.0003
478 2 46.4 46.4 1.6 -9.99423
511 3 48 48 0 -11.5106
480 2 49.6 46.4 1.6 -9.96048
482 2 1.6 49.6 1.6 -9.96251
484 2 4.8 49.6 1.6 -9.89902
486 2 8 49.6 1.6 -9.95756
488 2 11.2 49.6 1.6 -10.0202
490 3 14.4 49.6 1.6 -11.5434
492 3 17.6 49.6 1.6 -11.5074
494 1 20.8 49.6 1.6 -11.9465
496 2 24 49.6 1.6 -9.95904
498 3 27.2 49.6 1.6 -11.483
500 3 30.4 49.6 1.6 -11.569
502 3 33.6 49.6 1.6 -11.5744
504 2 36.8 49.6 1.6 -9.98856
506 2 40 49.6 1.6 -9.97816
508 2 43.2 49.6 1.6 -9.95433
510 3 46.4 49.6 1.6 -11.4896
512 2 49.6 49.6 1.6 -10.0125
513 2 0 0 3.2 -9.96957
514 2 1.6 1.6 4.8 -9.92834
515 2 3.2 0 3.2 -9.94091
516 2 4.8 1.6 4.8 -9.93948
517 2 6.4 0 3.2 -9.92613
518 2 8 1.6 4.8 -9.91242
519 2 9.6 0 3.2 -9.94772
520 2 11.2 1.6 4.8 -10.0308
521 1 12.8 0 3.2 -11.9075
522 2 14.4 1.6 4.8 -9.97253
523 2 16 0 3.2 -9.9299
524 2 17.6 1.6 4.8 -9.98526
525 2 19.2 0 3.2 -9.99572
526 3 20.8 1.6 4.8 -11.5159
527 2 22.4 0 3.2 -10.034
528 2 24 1.6 4.8 -10.0144
529 3 25.6 0 3.2 -11.5383
530 2 27.2 1.6 4.8 -9.97673
531 2 28.8 0 3.2 -10.0122
532 3 30.4 1.6 4.8 -11.483
533 1 32 0 3.2 -11.9998
534 3 33.6 1.6 4.8 -11.5265
535 2 35.2 0 3.2 -9.92625
536 3 36.8 1.6 4.8 -11.4507
537 2 38.4 0 3.2 -9.98394
538 3 40 1.6 4.8 -11.622
539 2 41.6 0 3.2 -10.0357
540 3 43.2 1.6 4.8 -11.5169
541 3 44.8 0 3.2 -11.487
542 2 46.4 1.6 4.8 -9.96823
543 2 48 0 3.2 -9.9752
544 2 49.6 1.6 4.8 -9.98844
545 2 0 3.2 3.2 -9.97814
546 2 1.6 4.8 4.8 -9.97315
547 2 3.2 3.2 3.2 -9.96821
548 2 4.8 4.8 4.8 -10.0071
549 3 6.4 3.2 3.2 -11.4241
550 2 8 4.8 4.8 -9.9958
551 2 9.6 3.2 3.2 -9.94845
552 3 11.2 4.8 4.8 -11.5161
553 3 12.8 3.2 3.2 -11.4722
554 2 14.4 4.8 4.8 -10.0138
555 2 16 3.2 3.2 -10.0392
556 3 17.6 4.8 4.8 -11.4648
557 2 19.2 3.2 3.2 -10.0355
558 1 20.8 4.8 4.8 -11.9198
559 3 22.4 3.2 3.2 -11.5526
560 3 24 4.8 4.8 -11.4694
561 3 25.6 3.2 3.2 -11.5042
562 2 27.2 4.8 4.8 -9.9925
563 2 28.8 3.2 3.2 -9.94273
564 2 30.4 4.8 4.8 -9.99487
565 2 32 3.2 3.2 -9.90407
566 2 33.6 4.8 4.8 -9.96653
567 1 35.2 3.2 3.2 -11.8996
568 2 36.8 4.8 4.8 -9.98369
569 2 38.4 3.2 3.2 -10.0005
570 3 40 4.8 4.8 -11.6184
571 3 41.6 3.2 3.2 -11.5621
572 2 43.2 4.8 4.8 -9.9876
573 2 44.8 3.2 3.2 -9.97771
574 2 46.4 4.8 4.8 -9.92604
575 2 48 3.2 3.2 -9.96956
576 2 49.6 4.8 4.8 -9.99595
577 2 0 6.4 3.2 -9.96041
578 2 1.6 8 4.8 -9.87138
579 1 3.2 6.4 3.2 -11.8291
580 2 4.8 8 4.8 -9.96335
581 3 6.4 6.4 3.2 -11.5404
582 3 8 8 4.8 -11.5865
583 3 9.6 6.4 3.2 -11.5694
584 3 11.2 8 4.8 -11.5988
585 2 12.8 6.4 3.2 -10.0609
586 3 14.4 8 4.8 -11.5425
587 3 16 6.4 3.2 -11.5622
588 3 17.6 8 4.8 -11.5775
589 3 19.2 6.4 3.2 -11.5741
590 3 20.8 8 4.8 -11.5282
591 2 22.4 6.4 3.2 -10.0075
592 3 24 8 4.8 -11.5995
593 3 25.6 6.4 3.2 -11.5692
594 3 27.2 8 4.8 -11.6233
595 3 28.8 6.4 3.2 -11.5133
596 3 30.4 8 4.8 -11.5184
597 1 32 6.4 3.2 -11.8927
598 2 33.6 8 4.8 -9.98631
599 2 35.2 6.4 3.2 -9.94528
600 3 36.8 8 4.8 -11.5232
601 3 38.4 6.4 3.2 -11.5991
602 3 40 8 4.8 -11.586
603 3 41.6 6.4 3.2 -11.5746
604 2 43.2 8 4.8 -10.0077
605 2 44.8 6.4 3.2 -9.95651
606 2 46.4 8 4.8 -9.96246
607 2 48 6.4 3.2 -9.96957
608 2 49.6 8 4.8 -10.0139
609 2 0 9.6 3.2 -9.96098
610 2 1.6 11.2 4.8 -9.97382
611 1 3.2 9.6 3.2 -11.8265
612 3 4.8 11.2 4.8 -11.5393
613 2 6.4 9.6 3.2 -9.97642
614 3 8 11.2 4.8 -11.5272
615 3 9.6 9.6 3.2 -11.5537
616 2 11.2 11.2 4.8 -10.0159
617 2 12.8 9.6 3.2 -10.0165
618 2 14.4 11.2 4.8 -10.0313
619 2 16 9.6 3.2 -10.0146
620 2 17.6 11.2 4.8 -10.0423
621 3 19.2 9.6 3.2 -11.599
622 3 20.8 11.2 4.8 -11.5644
623 2 22.4 9.6 3.2 -9.99827
624 3 24 11.2 4.8 -11.5542
625 3 25.6 9.6 3.2 -11.5877
626 3 27.2 11.2 4.8 -11.5653
627 2 28.8 9.6 3.2 -10.0121
628 2 30.4 11.2 4.8 -10.0347
629 2 32 9.6 3.2 -9.91907
630 3 33.6 11.2 4.8 -11.4936
631 2 35.2 9.6 3.2 -9.98561
632 2 36.8 11.2 4.8 -9.99999
633 2 38.4 9.6 3.2 -9.96717
634 2 40 11.2 4.8 -9.98858
635 2 41.6 9.6 3.2 -10.0101
636 2 43.2 11.2 4.8 -9.98294
637 2 44.8 9.6 3.2 -9.96952
638 2 46.4 11.2 4.8 -9.99012
639 2 48 9.6 3.2 -10.0058
640 3 49.6 11.2 4.8 -11.5376
641 3 0 12.8 3.2 -11.489
642 1 1.6 14.4 4.8 -11.9137
643 3 3.2 12.8 3.2 -11.5435
644 3 4.8 14.4 4.8 -11.5285
645 3 6.4 12.8 3.2 -11.5871
646 2 8 14.4 4.8 -9.94811
647 3 9.6 12.8 3.2 -11.5658
648 2 11.2 14.4 4.8 -9.9768
649 2 12.8 12.8 3.2 -9.98492
650 2 14.4 14.4 4.8 -9.98164
651 2 16 12.8 3.2 -10.0206
652 2 17.6 14.4 4.8 -10.0272
653 3 19.2 12.8 3.2 -11.5985
654 2 20.8 14.4 4.8 -9.98231
655 3 22.4 12.8 3.2 -11.5611
656 2 24 14.4 4.8 -10.0241
657 3 25.6 12.8 3.2 -11.5411
658 2 27.2 14.4 4.8 -9.97762
659 3 28.8 12.8 3.2 -11.5016
660 2 30.4 14.4 4.8 -10.0343
661 2 32 12.8 3.2 -10.0357
662 3 33.6 14.4 4.8 -11.4455
663 2 35.2 12.8 3.2 -9.96789
664 2 36.8 14.4 4.8 -9.96058
665 2 38.4 12.8 3.2 -9.92836
666 2 40 14.4 4.8 -9.96009
667 2 41.6 12.8 3.2 -9.95488
668 3 43.2 14.4 4.8 -11.4756
669 1 44.8 12.8 3.2 -11.9218
670 2 46.4 14.4 4.8 -9.98843
671 2 48 12.8 3.2 -10.0098
672 2 49.6 14.4 4.8 -9.99162
673 2 0 16 3.2 -9.96211
674 1 1.6 17.6 4.8 -11.8843
675 3 3.2 16 3.2 -11.4888
676 2 4.8 17.6 4.8 -9.97216
677 1 6.4 16 3.2 -11.8592
678 2 8 17.6 4.8 -9.90216
679 1 9.6 16 3.2 -11.8128
680 2 11.2 17.6 4.8 -9.96416
681 1 12.8 16 3.2 -11.8349
682 3 14.4 17.6 4.8 -11.4829
683 2 16 16 3.2 -9.99195
684 3 17.6 17.6 4.8 -11.547
685 2 19.2 16 3.2 -10.0424
686 2 20.8 17.6 4.8 -10.0153
687 2 22.4 16 3.2 -10.022
688 3 24 17.6 4.8 -11.4816
689 3 25.6 16 3.2 -11.4769
690 2 27.2 17.6 4.8 -10.0323
691 2 28.8 16 3.2 -10.0083
692 3 30.4 17.6 4.8 -11.493
693 3 32 16 3.2 -11.5146
694 3 33.6 17.6 4.8 -11.5482
695 3 35.2 16 3.2 -11.4534
696 3 36.8 17.6 4.8 -11.5594
697 1 38.4 16 3.2 -11.8639
698 2 40 17.6 4.8 -9.93469
699 2 41.6 16 3.2 -9.96241
700 2 43.2 17.6 4.8 -9.98037
701 2 44.8 16 3.2 -9.97064
702 1 46.4 17.6 4.8 -11.8642
703 2 48 16 3.2 -9.97318
704 2 49.6 17.6 4.8 -9.9388
705 3 0 19.2 3.2 -11.4842
706 2 1.6 20.8 4.8 -9.99072
707 2 3.2 19.2 3.2 -9.98407
708 2 4.8 20.8 4.8 -10.0104
709 1 6.4 19.2 3.2 -11.8604
710 3 8 20.8 4.8 -11.4759
711 2 9.6 19.2 3.2 -9.96126
712 2 11.2 20.8 4.8 -10.0594
713 2 12.8 19.2 3.2 -9.984
714 2 14.4 20.8 4.8 -10.0192
715 2 16 19.2 3.2 -9.99212
716 3 17.6 20.8 4.8 -11.503
717 3 19.2 19.2 3.2 -11.4931
718 2 20.8 20.8 4.8 -10.0076
719 2 22.4 19.2 3.2 -9.99089
720 2 24 20.8 4.8 -10.0212
721 2 25.6 19.2 3.2 -10.0233
722 2 27.2 20.8 4.8 -10.0385
723 2 28.8 19.2 3.2 -10.022
724 2 30.4 20.8 4.8 -10.0306
725 3 32 19.2 3.2 -11.4916
726 2 33.6 20.8 4.8 -9.98428
727 2 35.2 19.2 3.2 -10.0387
728 3 36.8 20.8 4.8 -11.5044
729 2 38.4 19.2 3.2 -9.92729
730 1 40 20.8 4.8 -11.9179
731 2 41.6 19.2 3.2 -9.94994
732 3 43.2 20.8 4.8 -11.431
733 2 44.8 19.2 3.2 -9.97531
734 3 46.4 20.8 4.8 -11.5515
735 2 48 19.2 3.2 -10.0066
736 3 49.6 20.8 4.8 -11.6219
737 2 0 22.4 3.2 -10.047
738 3 1.6 24 4.8 -11.5488
739 2 3.2 22.4 3.2 -9.96613
740 2 4.8 24 4.8 -9.93645
741 3 6.4 22.4 3.2 -11.424
742 1 8 24 4.8 -11.9128
743 3 9.6 22.4 3.2 -11.5656
744 3 11.2 24 4.8 -11.5412
745 3 12.8 22.4 3.2 -11.5867
746 3 14.4 24 4.8 -11.5188
747 3 16 22.4 3.2 -11.4695
748 2 17.6 24 4.8 -9.9807
749 3 19.2 22.4 3.2 -11.583
750 3 20.8 24 4.8 -11.508
751 3 22.4 22.4 3.2 -11.4879
752 2 24 24 4.8 -9.97065
753 3 25.6 22.4 3.2 -11.5456
754 3 27.2 24 4.8 -11.5511
755 3 28.8 22.4 3.2 -11.5752
756 3 30.4 24 4.8 -11.6112
757 2 32 22.4 3.2 -10.0314
758 3 33.6 24 4.8 -11.5034
759 2 35.2 22.4 3.2 -10.023
760 2 36.8 24 4.8 -10.0517
761 3 38.4 22.4 3.2 -11.5141
762 3 40 24 4.8 -11.4895
763 2 41.6 22.4 3.2 -9.98116
764 3 43.2 24 4.8 -11.5511
765 2 44.8 22.4 3.2 -9.97641
766 3 46.4 24 4.8 -11.5408
767 2 48 22.4 3.2 -10.0309
768 3 49.6 24 4.8 -11.6347
769 3 0 25.6 3.2 -11.5038
771 2 3.2 25.6 3.2 -10.0087
773 2 6.4 25.6 3.2 -10.0071
775 2 9.6 25.6 3.2 -10.0174
777 2 12.8 25.6 3.2 -10.0247
779 2 16 25.6 3.2 -9.97572
781 3 19.2 25.6 3.2 -11.5202
783 2 22.4 25.6 3.2 -9.99664
785 3 25.6 25.6 3.2 -11.5756
787 2 28.8 25.6 3.2 -10.0479
789 3 32 25.6 3.2 -11.5511
791 2 35.2 25.6 3.2 -10.0186
793 2 38.4 25.6 3.2 -10.0194
795 2 41.6 25.6 3.2 -9.97928
797 2 44.8 25.6 3.2 -9.98063
799 3 48 25.6 3.2 -11.5622
770 2 1.6 27.2 4.8 -9.97444
801 2 0 28.8 3.2 -9.99156
772 3 4.8 27.2 4.8 -11.5732
803 2 3.2 28.8 3.2 -10.0034
774 3 8 27.2 4.8 -11.5407
805 3 6.4 28.8 3.2 -11.5895
776 2 11.2 27.2 4.8 -10.0141
807 2 9.6 28.8 3.2 -9.98864
778 2 14.4 27.2 4.8 -9.97015
809 2 12.8 28.8 3.2 -9.95793
780 2 17.6 27.2 4.8 -9.97934
811 2 16 28.8 3.2 -9.93687
782 2 20.8 27.2 4.8 -10.0008
813 2 19.2 28.8 3.2 -9.97605
784 2 24 27.2 4.8 -9.98948
815 2 22.4 28.8 3.2 -9.98076
817 3 25.6 28.8 3.2 -11.6094
786 3 27.2 27.2 4.8 -11.5342
819 3 28.8 28.8 3.2 -11.6091
788 2 30.4 27.2 4.8 -10.0009
821 3 32 28.8 3.2 -11.5639
790 1 33.6 27.2 4.8 -11.968
823 3 35.2 28.8 3.2 -11.5034
792 2 36.8 27.2 4.8 -9.94841
825 2 38.4 28.8 3.2 -9.96635
794 2 40 27.2 4.8 -9.96947
827 2 41.6 28.8 3.2 -9.96957
796 2 43.2 27.2 4.8 -9.95908
829 2 44.8 28.8 3.2 -9.9696
798 2 46.4 27.2 4.8 -9.98711
831 2 48 28.8 3.2 -10.0128
800 3 49.6 27.2 4.8 -11.5508
802 1 1.6 30.4 4.8 -11.8634
833 3 0 32 3.2 -11.3831
804 3 4.8 30.4 4.8 -11.5534
835 3 3.2 32 3.2 -11.4702
806 2 8 30.4 4.8 -9.95626
837 3 6.4 32 3.2 -11.5843
808 2 11.2 30.4 4.8 -9.95623
839 2 9.6 32 3.2 -10.0104
810 2 14.4 30.4 4.8 -9.98104
841 3 12.8 32 3.2 -11.4777
812 3 17.6 30.4 4.8 -11.4234
843 2 16 32 3.2 -9.95283
814 2 20.8 30.4 4.8 -9.87232
845 1 19.2 32 3.2 -11.809
816 2 24 30.4 4.8 -9.94115
847 1 22.4 32 3.2 -11.7843
849 2 25.6 32 3.2 -9.97695
818 2 27.2 30.4 4.8 -10.0157
851 3 28.8 32 3.2 -11.5714
820 2 30.4 30.4 4.8 -9.98017
853 3 32 32 3.2 -11.5478
822 2 33.6 30.4 4.8 -9.96977
855 2 35.2 32 3.2 -9.98746
824 2 36.8 30.4 4.8 -9.98285
857 2 38.4 32 3.2 -9.98849
826 2 40 30.4 4.8 -9.94089
859 2 41.6 32 3.2 -9.96958
828 2 43.2 30.4 4.8 -9.98844
861 2 44.8 32 3.2 -9.9959
830 2 46.4 30.4 4.8 -9.98396
863 2 48 32 3.2 -9.99362
832 2 49.6 30.4 4.8 -9.9318
834 1 1.6 33.6 4.8 -11.8835
865 3 0 35.2 3.2 -11.4903
836 2 4.8 33.6 4.8 -9.98865
867 2 3.2 35.2 3.2 -10.0353
838 1 8 33.6 4.8 -11.9145
869 3 6.4 35.2 3.2 -11.5112
840 1 11.2 33.6 4.8 -11.933
871 3 9.6 35.2 3.2 -11.5218
842 2 14.4 33.6 4.8 -9.97844
873 2 12.8 35.2 3.2 -10.0384
844 3 17.6 33.6 4.8 -11.5101
875 2 16 35.2 3.2 -10.0243
846 3 20.8 33.6 4.8 -11.4258
877 2 19.2 35.2 3.2 -9.97756
848 3 24 33.6 4.8 -11.4405
879 2 22.4 35.2 3.2 -9.9766
881 3 25.6 35.2 3.2 -11.5775
850 3 27.2 33.6 4.8 -11.5274
883 3 28.8 35.2 3.2 -11.4736
852 1 30.4 33.6 4.8 -11.8531
885 3 32 35.2 3.2 -11.4593
854 1 33.6 33.6 4.8 -11.9313
887 3 35.2 35.2 3.2 -11.5678
856 2 36.8 33.6 4.8 -9.97092
889 3 38.4 35.2 3.2 -11.5625
858 2 40 33.6 4.8 -10.0045
891 2 41.6 35.2 3.2 -9.93362
860 2 43.2 33.6 4.8 -9.97822
893 2 44.8 35.2 3.2 -10.0006
862 2 46.4 33.6 4.8 -9.9805
895 2 48 35.2 3.2 -10.0145
864 1 49.6 33.6 4.8 -11.8773
866 3 1.6 36.8 4.8 -11.5768
897 3 0 38.4 3.2 -11.56
868 3 4.8 36.8 4.8 -11.515
899 2 3.2 38.4 3.2 -10.022
870 1 8 36.8 4.8 -11.9039
901 2 6.4 38.4 3.2 -9.97769
872 3 11.2 36.8 4.8 -11.4828
903 3 9.6 38.4 3.2 -11.5547
874 2 14.4 36.8 4.8 -10.0107
905 3 12.8 38.4 3.2 -11.5895
876 3 17.6 36.8 4.8 -11.549
907 2 16 38.4 3.2 -10.0188
878 3 20.8 36.8 4.8 -11.5001
909 3 19.2 38.4 3.2 -11.4972
880 1 24 36.8 4.8 -11.9094
911 2 22.4 38.4 3.2 -9.96132
913 3 25.6 38.4 3.2 -11.4723
882 3 27.2 36.8 4.8 -11.5339
915 3 28.8 38.4 3.2 -11.5265
884 1 30.4 36.8 4.8 -11.9064
917 3 32 38.4 3.2 -11.5114
886 3 33.6 36.8 4.8 -11.533
919 3 35.2 38.4 3.2 -11.5982
888 3 36.8 36.8 4.8 -11.6
921 2 38.4 38.4 3.2 -9.99935
890 3 40 36.8 4.8 -11.4859
923 1 41.6 38.4 3.2 -11.9225
892 2 43.2 36.8 4.8 -9.99228
925 2 44.8 38.4 3.2 -9.99545
894 2 46.4 36.8 4.8 -9.96735
927 3 48 38.4 3.2 -11.5279
896 2 49.6 36.8 4.8 -9.96698
898 2 1.6 40 4.8 -9.98734
929 2 0 41.6 3.2 -9.97318
900 2 4.8 40 4.8 -9.95648
931 2 3.2 41.6 3.2 -9.98293
902 1 8 40 4.8 -11.852
933 2 6.4 41.6 3.2 -9.9521
904 2 11.2 40 4.8 -10.0467
935 3 9.6 41.6 3.2 -11.5708
906 3 14.4 40 4.8 -11.5287
937 3 12.8 41.6 3.2 -11.6155
908 2 17.6 40 4.8 -10.0206
939 3 16 41.6 3.2 -11.4769
910 2 20.8 40 4.8 -9.95654
941 2 19.2 41.6 3.2 -9.98447
912 1 24 40 4.8 -11.8429
943 2 22.4 41.6 3.2 -10.0007
945 3 25.6 41.6 3.2 -11.5139
914 3 27.2 40 4.8 -11.4959
947 3 28.8 41.6 3.2 -11.54
916 2 30.4 40 4.8 -9.99496
949 2 32 41.6 3.2 -10.0066
918 2 33.6 40 4.8 -9.92863
951 2 35.2 41.6 3.2 -10
920 1 36.8 40 4.8 -11.9349
953 3 38.4 41.6 3.2 -11.5478
922 3 40 40 4.8 -11.4882
955 3 41.6 41.6 3.2 -11.5208
924 3 43.2 40 4.8 -11.4686
957 3 44.8 41.6 3.2 -11.5649
926 1 46.4 40 4.8 -11.9008
959 2 48 41.6 3.2 -10.0101
928 1 49.6 40 4.8 -11.9057
930 2 1.6 43.2 4.8 -10.0205
961 2 0 44.8 3.2 -10.0218
932 2 4.8 43.2 4.8 -9.93186
963 3 3.2 44.8 3.2 -11.519
934 1 8 43.2 4.8 -11.8896
965 3 6.4 44.8 3.2 -11.5046
936 3 11.2 43.2 4.8 -11.4691
967 2 9.6 44.8 3.2 -10.0621
938 3 14.4 43.2 4.8 -11.5253
969 3 12.8 44.8 3.2 -11.529
940 2 17.6 43.2 4.8 -9.9472
971 1 16 44.8 3.2 -11.8886
942 2 20.8 43.2 4.8 -10.0157
973 1 19.2 44.8 3.2 -11.9191
944 3 24 43.2 4.8 -11.5384
975 3 22.4 44.8 3.2 -11.5658
977 2 25.6 44.8 3.2 -10.0183
946 3 27.2 43.2 4.8 -11.5083
979 3 28.8 44.8 3.2 -11.445
948 2 30.4 43.2 4.8 -10.0202
981 2 32 44.8 3.2 -10.0238
950 2 33.6 43.2 4.8 -9.98849
983 2 35.2 44.8 3.2 -10.014
952 2 36.8 43.2 4.8 -9.97226
985 3 38.4 44.8 3.2 -11.5494
954 2 40 43.2 4.8 -10.0065
987 3 41.6 44.8 3.2 -11.5995
956 2 43.2 43.2 4.8 -10.021
989 3 44.8 44.8 3.2 -11.5144
958 2 46.4 43.2 4.8 -9.97703
991 2 48 44.8 3.2 -10.002
960 2 49.6 43.2 4.8 -9.98687
962 3 1.6 46.4 4.8 -11.5511
993 2 0 48 3.2 -9.97817
964 3 4.8 46.4 4.8 -11.5628
995 2 3.2 48 3.2 -9.97586
966 2 8 46.4 4.8 -9.97006
997 2 6.4 48 3.2 -10.0022
968 2 11.2 46.4 4.8 -10.0278
999 2 9.6 48 3.2 -9.94843
970 2 14.4 46.4 4.8 -10.0044
1001 2 12.8 48 3.2 -10.0093
972 3 17.6 46.4 4.8 -11.4409
1003 2 16 48 3.2 -10.0024
974 3 20.8 46.4 4.8 -11.5317
1005 3 19.2 48 3.2 -11.501
976 3 24 46.4 4.8 -11.5806
1007 3 22.4 48 3.2 -11.5385
1009 3 25.6 48 3.2 -11.5543
978 3 27.2 46.4 4.8 -11.5419
1011 3 28.8 48 3.2 -11.6111
980 3 30.4 46.4 4.8 -11.5044
1013 3 32 48 3.2 -11.5083
982 2 33.6 46.4 4.8 -10.0287
1015 2 35.2 48 3.2 -10.0044
984 2 36.8 46.4 4.8 -9.97182
1017 2 38.4 48 3.2 -9.97773
986 3 40 46.4 4.8 -11.5249
1019 3 41.6 48 3.2 -11.5144
988 3 43.2 46.4 4.8 -11.4851
1021 3 44.8 48 3.2 -11.5039
990 2 46.4 46.4 4.8 -9.95549
1023 2 48 48 3.2 -9.992
992 2 49.6 46.4 4.8 -9.99583
994 2 1.6 49.6 4.8 -9.9958
996 2 4.8 49.6 4.8 -9.99583
998 2 8 49.6 4.8 -9.98294
1000 3 11.2 49.6 4.8 -11.455
1002 2 14.4 49.6 4.8 -9.93156
1004 1 17.6 49.6 4.8 -11.8977
1006 2 20.8 49.6 4.8 -9.94271
1008 1 24 49.6 4.8 -11.9546
1010 2 27.2 49.6 4.8 -10.031
1012 3 30.4 49.6 4.8 -11.6354
1014 3 33.6 49.6 4.8 -11.5735
1016 2 36.8 49.6 4.8 -9.97832
1018 2 40 49.6 4.8 -9.99535
1020 1 43.2 49.6 4.8 -11.9759
1022 1 46.4 49.6 4.8 -11.8877
1024 2 49.6 49.6 4.8 -9.9283
1025 2 0 0 6.4 -9.97519
1026 1 1.6 1.6 8 -11.8432
1027 2 3.2 0 6.4 -9.9601
1028 2 4.8 1.6 8 -9.95793
1029 2 6.4 0 6.4 -9.99581
1030 2 8 1.6 8 -9.98271
1031 2 9.6 0 6.4 -9.95856
1032 3 11.2 1.6 8 -11.588
1033 3 12.8 0 6.4 -11.5118
1034 2 14.4 1.6 8 -9.91121
1035 2 16 0 6.4 -9.97271
1036 2 17.6 1.6 8 -9.97193
1037 2 19.2 0 6.4 -9.99909
1038 3 20.8 1.6 8 -11.4818
1039 3 22.4 0 6.4 -11.5552
1040 2 24 1.6 8 -9.99557
1041 3 25.6 0 6.4 -11.5385
1042 3 27.2 1.6 8 -11.5231
1043 3 28.8 0 6.4 -11.5892
1044 2 30.4 1.6 8 -10.0194
1045 3 32 0 6.4 -11.4828
1046 2 33.6 1.6 8 -9.99911
1047 2 35.2 0 6.4 -10.0092
1048 1 36.8 1.6 8 -11.9085
1049 2 38.4 0 6.4 -9.97378
1050 3 40 1.6 8 -11.5525
1051 3 41.6 0 6.4 -11.6006
1052 3 43.2 1.6 8 -11.6374
1053 3 44.8 0 6.4 -11.5243
1054 3 46.4 1.6 8 -11.6125
1055 2 48 0 6.4 -9.99291
1056 3 49.6 1.6 8 -11.5396
1057 2 0 3.2 6.4 -9.98063
1058 2 1.6 4.8 8 -9.91802
1059 2 3.2 3.2 6.4 -9.95153
1060 3 4.8 4.8 8 -11.5626
1061 2 6.4 3.2 6.4 -9.98363
1062 3 8 4.8 8 -11.5744
1063 1 9.6 3.2 6.4 -11.9181
1064 3 11.2 4.8 8 -11.6036
1065 3 12.8 3.2 6.4 -11.5392
1066 1 14.4 4.8 8 -11.9035
1067 2 16 3.2 6.4 -9.96349
1068 1 17.6 4.8 8 -11.8414
1069 2 19.2 3.2 6.4 -9.97884
1070 1 20.8 4.8 8 -11.8635
1071 3 22.4 3.2 6.4 -11.5013
1072 2 24 4.8 8 -9.97017
1073 2 25.6 3.2 6.4 -9.99097
1074 3 27.2 4.8 8 -11.4969
1075 1 28.8 3.2 6.4 -11.9121
1076 2 30.4 4.8 8 -10.0126
1077 2 32 3.2 6.4 -9.98485
1078 2 33.6 4.8 8 -9.93596
1079 2 35.2 3.2 6.4 -9.93565
1080 1 36.8 4.8 8 -11.9352
1081 3 38.4 3.2 6.4 -11.5609
1082 3 40 4.8 8 -11.5816
1083 3 41.6 3.2 6.4 -11.5437
1084 3 43.2 4.8 8 -11.5658
1085 1 44.8 3.2 6.4 -11.9192
1086 3 46.4 4.8 8 -11.5933
1087 2 48 3.2 6.4 -9.97078
1088 3 49.6 4.8 8 -11.5984
1089 3 0 6.4 6.4 -11.4933
1090 1 1.6 8 8 -11.8987
1091 2 3.2 6.4 6.4 -9.97947
1092 3 4.8 8 8 -11.4966
1093 3 6.4 6.4 6.4 -11.5661
1094 3 8 8 8 -11.555
1095 3 9.6 6.4 6.4 -11.5672
1096 3 11.2 8 8 -11.5098
1097 3 12.8 6.4 6.4 -11.5606
1098 1 14.4 8 8 -11.9021
1099 2 16 6.4 6.4 -9.95849
1100 1 17.6 8 8 -11.8779
1101 3 19.2 6.4 6.4 -11.4114
1102 2 20.8 8 8 -9.91898
1103 2 22.4 6.4 6.4 -9.98534