ITEM: TIMESTEP
0
ITEM: NUMBER OF ATOMS
8192
ITEM: BOX BOUNDS pp pp pp
0.0000000000000000e+00 5.1200000000000003e+01
0.0000000000000000e+00 5.1200000000000003e+01
0.0000000000000000e+00 5.1200000000000003e+01
ITEM: ATOMS id type x y z c_eng
1 3 0 0 0 -11.4611
2 1 1.6 1.6 1.6 -11.79
3 3 3.2 0 0 -11.3023
4 1 4.8 1.6 1.6 -11.8703
5 3 6.4 0 0 -11.3924
6 1 8 1.6 1.6 -11.8147
7 3 9.6 0 0 -11.3821
8 1 11.2 1.6 1.6 -11.7424
9 2 12.8 0 0 -9.99442
10 3 14.4 1.6 1.6 -11.4055
11 2 16 0 0 -9.92764
12 2 17.6 1.6 1.6 -9.89356
13 3 19.2 0 0 -11.338
14 3 20.8 1.6 1.6 -11.3761
15 3 22.4 0 0 -11.4956
16 3 24 1.6 1.6 -11.416
17 3 25.6 0 0 -11.4786
18 3 27.2 1.6 1.6 -11.4975
19 1 28.8 0 0 -11.9017
20 3 30.4 1.6 1.6 -11.4546
21 3 32 0 0 -11.4794
22 3 33.6 1.6 1.6 -11.6031
23 3 35.2 0 0 -11.5864
24 3 36.8 1.6 1.6 -11.5674
25 3 38.4 0 0 -11.4255
26 3 40 1.6 1.6 -11.3986
27 3 41.6 0 0 -11.37
28 2 43.2 1.6 1.6 -9.89253
29 1 44.8 0 0 -11.8178
30 3 46.4 1.6 1.6 -11.1932
31 2 48 0 0 -9.90855
32 3 49.6 1.6 1.6 -11.4525
33 3 0 3.2 0 -11.4498
34 1 1.6 4.8 1.6 -11.8815
35 3 3.2 3.2 0 -11.3579
36 2 4.8 4.8 1.6 -9.89758
37 3 6.4 3.2 0 -11.3853
38 1 8 4.8 1.6 -11.8337
39 3 9.6 3.2 0 -11.3954
40 3 11.2 4.8 1.6 -11.3279
41 3 12.8 3.2 0 -11.3892
42 3 14.4 4.8 1.6 -11.4134
43 2 16 3.2 0 -9.88439
44 2 17.6 4.8 1.6 -9.86409
45 1 19.2 3.2 0 -11.7268
46 3 20.8 4.8 1.6 -11.3721
47 1 22.4 3.2 0 -11.8289
48 3 24 4.8 1.6 -11.3276
49 1 25.6 3.2 0 -11.77
50 3 27.2 4.8 1.6 -11.3901
51 1 28.8 3.2 0 -11.7297
52 1 30.4 4.8 1.6 -11.7837
53 1 32 3.2 0 -11.7401
54 1 33.6 4.8 1.6 -11.7657
55 2 35.2 3.2 0 -9.9261
56 1 36.8 4.8 1.6 -11.7519
57 3 38.4 3.2 0 -11.3988
58 2 40 4.8 1.6 -9.95972
59 2 41.6 3.2 0 -9.91457
60 2 43.2 4.8 1.6 -9.85683
61 1 44.8 3.2 0 -11.7619
62 1 46.4 4.8 1.6 -11.6517
63 1 48 3.2 0 -11.8673
64 3 49.6 4.8 1.6 -11.3775
65 3 0 6.4 0 -11.5327
66 2 1.6 8 1.6 -9.82447
67 3 3.2 6.4 0 -11.386
68 2 4.8 8 1.6 -9.8351
69 1 6.4 6.4 0 -11.8597
70 3 8 8 1.6 -11.3729
71 3 9.6 6.4 0 -11.4863
72 3 11.2 8 1.6 -11.4685
73 1 12.8 6.4 0 -11.9215
74 3 14.4 8 1.6 -11.5036
75 1 16 6.4 0 -11.7082
76 3 17.6 8 1.6 -11.4
77 1 19.2 6.4 0 -11.7356
78 2 20.8 8 1.6 -10.0195
79 3 22.4 6.4 0 -11.385
80 3 24 8 1.6 -11.4714
81 3 25.6 6.4 0 -11.4348
82 3 27.2 8 1.6 -11.5111
83 3 28.8 6.4 0 -11.4643
84 1 30.4 8 1.6 -11.944
85 3 32 6.4 0 -11.3663
86 1 33.6 8 1.6 -11.9226
87 3 35.2 6.4 0 -11.2707
88 2 36.8 8 1.6 -9.86316
89 1 38.4 6.4 0 -11.7458
90 3 40 8 1.6 -11.3659
91 1 41.6 6.4 0 -11.7668
92 2 43.2 8 1.6 -9.84019
93 2 44.8 6.4 0 -9.73997
94 3 46.4 8 1.6 -11.3616
95 3 48 6.4 0 -11.4998
96 2 49.6 8 1.6 -9.93707
97 1 0 9.6 0 -11.6223
98 1 1.6 11.2 1.6 -11.7055
99 1 3.2 9.6 0 -11.6448
100 2 4.8 11.2 1.6 -9.78615
101 1 6.4 9.6 0 -11.7219
102 3 8 11.2 1.6 -11.2466
103 2 9.6 9.6 0 -9.96538
104 1 11.2 11.2 1.6 -11.8199
105 3 12.8 9.6 0 -11.5456
106 3 14.4 11.2 1.6 -11.4707
107 2 16 9.6 0 -9.93524
108 2 17.6 11.2 1.6 -9.97562
109 2 19.2 9.6 0 -9.96922
110 3 20.8 11.2 1.6 -11.447
111 3 22.4 9.6 0 -11.5476
112 2 24 11.2 1.6 -9.96926
113 3 25.6 9.6 0 -11.4959
114 1 27.2 11.2 1.6 -11.8897
115 3 28.8 9.6 0 -11.5845
116 3 30.4 11.2 1.6 -11.4831
117 3 32 9.6 0 -11.5453
118 2 33.6 11.2 1.6 -9.87283
119 2 35.2 9.6 0 -10.0107
120 2 36.8 11.2 1.6 -9.98581
121 1 38.4 9.6 0 -11.857
122 3 40 11.2 1.6 -11.5025
123 1 41.6 9.6 0 -11.7075
124 3 43.2 11.2 1.6 -11.4065
125 1 44.8 9.6 0 -11.7778
126 3 46.4 11.2 1.6 -11.3967
127 1 48 9.6 0 -11.821
128 1 49.6 11.2 1.6 -11.7903
129 3 0 12.8 0 -11.2549
130 1 1.6 14.4 1.6 -11.8567
131 3 3.2 12.8 0 -11.2627
132 1 4.8 14.4 1.6 -11.857
133 2 6.4 12.8 0 -9.86921
134 3 8 14.4 1.6 -11.4277
135 3 9.6 12.8 0 -11.4257
136 1 11.2 14.4 1.6 -11.9273
137 3 12.8 12.8 0 -11.45
138 2 14.4 14.4 1.6 -9.94811
139 1 16 12.8 0 -11.8061
140 2 17.6 14.4 1.6 -9.94643
141 2 19.2 12.8 0 -9.76868
142 3 20.8 14.4 1.6 -11.5123
143 1 22.4 12.8 0 -11.9431
144 3 24 14.4 1.6 -11.4601
145 2 25.6 12.8 0 -9.89734
146 3 27.2 14.4 1.6 -11.25
147 2 28.8 12.8 0 -10.0035
148 2 30.4 14.4 1.6 -9.97845
149 3 32 12.8 0 -11.5003
150 1 33.6 14.4 1.6 -11.8703
151 3 35.2 12.8 0 -11.3558
152 2 36.8 14.4 1.6 -9.79339
153 1 38.4 12.8 0 -11.8184
154 3 40 14.4 1.6 -11.4173
155 1 41.6 12.8 0 -11.8856
156 3 43.2 14.4 1.6 -11.4597
157 3 44.8 12.8 0 -11.4342
158 1 46.4 14.4 1.6 -11.8893
159 3 48 12.8 0 -11.3882
160 1 49.6 14.4 1.6 -11.8437
161 2 0 16 0 -9.98077
162 3 1.6 17.6 1.6 -11.4509
163 3 3.2 16 0 -11.4634
164 3 4.8 17.6 1.6 -11.5666
165 3 6.4 16 0 -11.4843
166 3 8 17.6 1.6 -11.5665
167 2 9.6 16 0 -9.95695
168 3 11.2 17.6 1.6 -11.4426
169 3 12.8 16 0 -11.3173
170 1 14.4 17.6 1.6 -11.7822
171 1 16 16 0 -11.7455
172 2 17.6 17.6 1.6 -9.90816
173 1 19.2 16 0 -11.8948
174 3 20.8 17.6 1.6 -11.4624
175 3 22.4 16 0 -11.3307
176 2 24 17.6 1.6 -9.87247
177 1 25.6 16 0 -11.8506
178 3 27.2 17.6 1.6 -11.1251
179 1 28.8 16 0 -11.84
180 2 30.4 17.6 1.6 -9.89864
181 2 32 16 0 -9.95125
182 2 33.6 17.6 1.6 -9.97056
183 3 35.2 16 0 -11.3702
184 1 36.8 17.6 1.6 -11.8748
185 1 38.4 16 0 -11.7552
186 3 40 17.6 1.6 -11.2543
187 1 41.6 16 0 -11.8515
188 2 43.2 17.6 1.6 -9.94348
189 3 44.8 16 0 -11.462
190 1 46.4 17.6 1.6 -11.7803
191 2 48 16 0 -9.95489
192 2 49.6 17.6 1.6 -9.92989
193 1 0 19.2 0 -11.8921
194 3 1.6 20.8 1.6 -11.4289
195 1 3.2 19.2 0 -11.9109
196 3 4.8 20.8 1.6 -11.4497
197 1 6.4 19.2 0 -11.9103
198 3 8 20.8 1.6 -11.5838
199 1 9.6 19.2 0 -11.8802
200 3 11.2 20.8 1.6 -11.511
201 1 12.8 19.2 0 -11.7678
202 2 14.4 20.8 1.6 -9.93648
203 2 16 19.2 0 -9.89216
204 1 17.6 20.8 1.6 -11.9189
205 3 19.2 19.2 0 -11.4247
206 3 20.8 20.8 1.6 -11.4147
207 1 22.4 19.2 0 -11.8242
208 3 24 20.8 1.6 -11.3027
209 1 25.6 19.2 0 -11.7796
210 3 27.2 20.8 1.6 -11.3389
211 1 28.8 19.2 0 -11.8712
212 3 30.4 20.8 1.6 -11.4434
213 1 32 19.2 0 -11.8936
214 3 33.6 20.8 1.6 -11.5419
215 3 35.2 19.2 0 -11.402
216 2 36.8 20.8 1.6 -9.97845
217 2 38.4 19.2 0 -9.88627
218 2 40 20.8 1.6 -9.91349
219 3 41.6 19.2 0 -11.3611
220 3 43.2 20.8 1.6 -11.3984
221 1 44.8 19.2 0 -11.8288
222 3 46.4 20.8 1.6 -11.5293
223 3 48 19.2 0 -11.4945
224 3 49.6 20.8 1.6 -11.485
225 1 0 22.4 0 -11.7426
226 2 1.6 24 1.6 -9.83748
227 1 3.2 22.4 0 -11.8642
228 2 4.8 24 1.6 -9.89677
229 1 6.4 22.4 0 -11.9221
230 3 8 24 1.6 -11.4599
231 3 9.6 22.4 0 -11.5571
232 3 11.2 24 1.6 -11.5928
233 3 12.8 22.4 0 -11.4578
234 3 14.4 24 1.6 -11.498
235 3 16 22.4 0 -11.5247
236 1 17.6 24 1.6 -11.9714
237 3 19.2 22.4 0 -11.538
238 2 20.8 24 1.6 -9.87969
239 3 22.4 22.4 0 -11.329
240 3 24 24 1.6 -11.3328
241 1 25.6 22.4 0 -11.9177
242 3 27.2 24 1.6 -11.4485
243 3 28.8 22.4 0 -11.3733
244 3 30.4 24 1.6 -11.4716
245 1 32 22.4 0 -11.8831
246 3 33.6 24 1.6 -11.4717
247 1 35.2 22.4 0 -11.934
248 3 36.8 24 1.6 -11.3926
249 2 38.4 22.4 0 -9.8784
250 1 40 24 1.6 -11.8054
251 3 41.6 22.4 0 -11.3519
252 3 43.2 24 1.6 -11.4614
253 3 44.8 22.4 0 -11.4312
254 3 46.4 24 1.6 -11.4949
255 3 48 22.4 0 -11.4431
256 1 49.6 24 1.6 -11.7388
257 1 0 25.6 0 -11.6866
259 1 3.2 25.6 0 -11.8114
261 1 6.4 25.6 0 -11.8243
263 3 9.6 25.6 0 -11.5235
265 3 12.8 25.6 0 -11.595
267 3 16 25.6 0 -11.5198
269 3 19.2 25.6 0 -11.4932
271 1 22.4 25.6 0 -11.7797
273 1 25.6 25.6 0 -11.8493
275 2 28.8 25.6 0 -9.86971
277 3 32 25.6 0 -11.4542
279 2 35.2 25.6 0 -9.9697
281 3 38.4 25.6 0 -11.436
283 3 41.6 25.6 0 -11.4912
285 3 44.8 25.6 0 -11.4528
287 2 48 25.6 0 -9.93315
258 3 1.6 27.2 1.6 -11.42
289 3 0 28.8 0 -11.4291
260 3 4.8 27.2 1.6 -11.2758
291 3 3.2 28.8 0 -11.4393
262 1 8 27.2 1.6 -11.826
293 3 6.4 28.8 0 -11.3167
264 3 11.2 27.2 1.6 -11.3845
295 3 9.6 28.8 0 -11.338
266 2 14.4 27.2 1.6 -9.99049
297 2 12.8 28.8 0 -9.87566
268 3 17.6 27.2 1.6 -11.4992
299 1 16 28.8 0 -11.8669
270 3 20.8 27.2 1.6 -11.398
301 3 19.2 28.8 0 -11.4315
272 3 24 27.2 1.6 -11.5159
303 1 22.4 28.8 0 -11.9247
305 3 25.6 28.8 0 -11.3819
274 3 27.2 27.2 1.6 -11.4483
307 1 28.8 28.8 0 -11.8276
276 2 30.4 27.2 1.6 -9.97399
309 2 32 28.8 0 -9.95098
278 3 33.6 27.2 1.6 -11.4821
311 3 35.2 28.8 0 -11.3551
280 3 36.8 27.2 1.6 -11.4687
313 3 38.4 28.8 0 -11.5105
282 1 40 27.2 1.6 -11.9282
315 3 41.6 28.8 0 -11.4336
284 3 43.2 27.2 1.6 -11.4479
317 2 44.8 28.8 0 -9.97949
286 3 46.4 27.2 1.6 -11.5257
319 3 48 28.8 0 -11.4348
288 1 49.6 27.2 1.6 -11.8423
290 2 1.6 30.4 1.6 -9.90691
321 3 0 32 0 -11.4575
292 1 4.8 30.4 1.6 -11.8173
323 3 3.2 32 0 -11.3134
294 1 8 30.4 1.6 -11.8221
325 2 6.4 32 0 -9.88659
296 1 11.2 30.4 1.6 -11.8522
327 3 9.6 32 0 -11.4045
298 2 14.4 30.4 1.6 -9.94119
329 3 12.8 32 0 -11.468
300 3 17.6 30.4 1.6 -11.5036
331 1 16 32 0 -11.8174
302 3 20.8 30.4 1.6 -11.5207
333 2 19.2 32 0 -9.95607
304 3 24 30.4 1.6 -11.4219
335 3 22.4 32 0 -11.3966
337 1 25.6 32 0 -11.8031
306 3 27.2 30.4 1.6 -11.5067
339 1 28.8 32 0 -11.8339
308 3 30.4 30.4 1.6 -11.3902
341 1 32 32 0 -11.8302
310 3 33.6 30.4 1.6 -11.4581
343 1 35.2 32 0 -11.7988
312 2 36.8 30.4 1.6 -9.93473
345 2 38.4 32 0 -9.89645
314 3 40 30.4 1.6 -11.3291
347 2 41.6 32 0 -9.88374
316 1 43.2 30.4 1.6 -11.7409
349 2 44.8 32 0 -9.84766
318 1 46.4 30.4 1.6 -11.855
351 2 48 32 0 -9.87765
320 2 49.6 30.4 1.6 -9.90695
322 1 1.6 33.6 1.6 -11.9203
353 3 0 35.2 0 -11.4741
324 3 4.8 33.6 1.6 -11.4485
355 3 3.2 35.2 0 -11.4436
326 2 8 33.6 1.6 -9.94569
357 2 6.4 35.2 0 -9.95383
328 3 11.2 33.6 1.6 -11.4679
359 1 9.6 35.2 0 -11.8568
330 3 14.4 33.6 1.6 -11.5264
361 1 12.8 35.2 0 -11.9106
332 3 17.6 33.6 1.6 -11.2803
363 1 16 35.2 0 -11.7651
334 2 20.8 33.6 1.6 -9.87684
365 2 19.2 35.2 0 -9.88662
336 1 24 33.6 1.6 -11.6798
367 3 22.4 35.2 0 -11.3942
369 1 25.6 35.2 0 -11.8414
338 3 27.2 33.6 1.6 -11.3301
371 3 28.8 35.2 0 -11.4122
340 2 30.4 33.6 1.6 -9.96584
373 3 32 35.2 0 -11.4117
342 3 33.6 33.6 1.6 -11.4889
375 1 35.2 35.2 0 -11.825
344 3 36.8 33.6 1.6 -11.4061
377 1 38.4 35.2 0 -11.7241
346 3 40 33.6 1.6 -11.3518
379 1 41.6 35.2 0 -11.7761
348 1 43.2 33.6 1.6 -11.6726
381 1 44.8 35.2 0 -11.8316
350 3 46.4 33.6 1.6 -11.3125
383 1 48 35.2 0 -11.8972
352 3 49.6 33.6 1.6 -11.4133
354 2 1.6 36.8 1.6 -9.84805
385 3 0 38.4 0 -11.5231
356 1 4.8 36.8 1.6 -11.7839
387 3 3.2 38.4 0 -11.2591
358 2 8 36.8 1.6 -9.90307
389 2 6.4 38.4 0 -9.89751
360 3 11.2 36.8 1.6 -11.3978
391 1 9.6 38.4 0 -11.8668
362 3 14.4 36.8 1.6 -11.4437
393 1 12.8 38.4 0 -11.8792
364 1 17.6 36.8 1.6 -11.6105
395 1 16 38.4 0 -11.7082
366 2 20.8 36.8 1.6 -9.92189
397 1 19.2 38.4 0 -11.7458
368 2 24 36.8 1.6 -9.96685
399 3 22.4 38.4 0 -11.4956
401 2 25.6 38.4 0 -9.94544
370 3 27.2 36.8 1.6 -11.495
403 1 28.8 38.4 0 -11.819
372 3 30.4 36.8 1.6 -11.4985
405 3 32 38.4 0 -11.4744
374 3 33.6 36.8 1.6 -11.5819
407 1 35.2 38.4 0 -11.7453
376 3 36.8 36.8 1.6 -11.4502
409 1 38.4 38.4 0 -11.7704
378 3 40 36.8 1.6 -11.4394
411 2 41.6 38.4 0 -9.79812
380 3 43.2 36.8 1.6 -11.3441
413 1 44.8 38.4 0 -11.8206
382 2 46.4 36.8 1.6 -9.79121
415 2 48 38.4 0 -9.88086
384 2 49.6 36.8 1.6 -9.97871
386 3 1.6 40 1.6 -11.3897
417 2 0 41.6 0 -9.98175
388 1 4.8 40 1.6 -11.8282
419 3 3.2 41.6 0 -11.3893
390 3 8 40 1.6 -11.4119
421 3 6.4 41.6 0 -11.3195
392 2 11.2 40 1.6 -9.87963
423 1 9.6 41.6 0 -11.7499
394 3 14.4 40 1.6 -11.4619
425 1 12.8 41.6 0 -11.7986
396 1 17.6 40 1.6 -11.7287
427 3 16 41.6 0 -11.4111
398 3 20.8 40 1.6 -11.4955
429 3 19.2 41.6 0 -11.3828
400 3 24 40 1.6 -11.5296
431 2 22.4 41.6 0 -9.85994
433 2 25.6 41.6 0 -9.73139
402 3 27.2 40 1.6 -11.313
435 1 28.8 41.6 0 -11.7414
404 2 30.4 40 1.6 -9.95469
437 3 32 41.6 0 -11.4796
406 2 33.6 40 1.6 -10.0008
439 1 35.2 41.6 0 -11.8176
408 3 36.8 40 1.6 -11.4155
441 1 38.4 41.6 0 -11.798
410 3 40 40 1.6 -11.4935
443 1 41.6 41.6 0 -11.8891
412 3 43.2 40 1.6 -11.4737
445 3 44.8 41.6 0 -11.3706
414 1 46.4 40 1.6 -11.7978
447 3 48 41.6 0 -11.3898
416 3 49.6 40 1.6 -11.3655
418 2 1.6 43.2 1.6 -9.97425
449 3 0 44.8 0 -11.4767
420 1 4.8 43.2 1.6 -11.8657
451 3 3.2 44.8 0 -11.5194
422 2 8 43.2 1.6 -9.88032
453 2 6.4 44.8 0 -9.98102
424 1 11.2 43.2 1.6 -11.7951
455 3 9.6 44.8 0 -11.3727
426 3 14.4 43.2 1.6 -11.4435
457 2 12.8 44.8 0 -9.94388
428 1 17.6 43.2 1.6 -11.8366
459 2 16 44.8 0 -9.98661
430 1 20.8 43.2 1.6 -11.7172
461 3 19.2 44.8 0 -11.3579
432 1 24 43.2 1.6 -11.5392
463 1 22.4 44.8 0 -11.5941
465 1 25.6 44.8 0 -11.6623
434 3 27.2 43.2 1.6 -11.3115
467 3 28.8 44.8 0 -11.4159
436 3 30.4 43.2 1.6 -11.4801
469 3 32 44.8 0 -11.5372
438 3 33.6 43.2 1.6 -11.4958
471 2 35.2 44.8 0 -9.84335
440 2 36.8 43.2 1.6 -9.89602
473 1 38.4 44.8 0 -11.8615
442 3 40 43.2 1.6 -11.4215
475 2 41.6 44.8 0 -9.89644
444 2 43.2 43.2 1.6 -9.90381
477 1 44.8 44.8 0 -11.7331
446 1 46.4 43.2 1.6 -11.6842
479 1 48 44.8 0 -11.7493
448 2 49.6 43.2 1.6 -9.82934
450 3 1.6 46.4 1.6 -11.4259
481 3 0 48 0 -11.3727
452 2 4.8 46.4 1.6 -10.0025
483 2 3.2 48 0 -9.93973
454 3 8 46.4 1.6 -11.5251
485 2 6.4 48 0 -9.95204
456 2 11.2 46.4 1.6 -9.99196
487 1 9.6 48 0 -11.8451
458 3 14.4 46.4 1.6 -11.5507
489 1 12.8 48 0 -11.9442
460 3 17.6 46.4 1.6 -11.3576
491 3 16 48 0 -11.4069
462 3 20.8 46.4 1.6 -11.4135
493 2 19.2 48 0 -9.96172
464 3 24 46.4 1.6 -11.375
495 3 22.4 48 0 -11.5165
497 3 25.6 48 0 -11.5372
466 1 27.2 46.4 1.6 -11.8124
499 3 28.8 48 0 -11.4084
468 1 30.4 46.4 1.6 -11.8131
501 3 32 48 0 -11.3478
470 1 33.6 46.4 1.6 -11.7028
503 2 35.2 48 0 -9.87217
472 2 36.8 46.4 1.6 -9.83807
505 2 38.4 48 0 -9.90877
474 3 40 46.4 1.6 -11.3511
507 3 41.6 48 0 -11.4393
476 1 43.2 46.4 1.6 -11.807
509 3 44.8 48 0 -11.307
478 2 46.4 46.4 1.6 -9.73987
511 2 48 48 0 -9.89962
480 2 49.6 46.4 1.6 -9.83674
482 2 1.6 49.6 1.6 -9.88094
484 2 4.8 49.6 1.6 -9.85619
486 2 8 49.6 1.6 -9.9811
488 2 11.2 49.6 1.6 -9.9552
490 3 14.4 49.6 1.6 -11.4399
492 1 17.6 49.6 1.6 -11.6857
494 2 20.8 49.6 1.6 -9.94609
496 3 24 49.6 1.6 -11.4975
498 3 27.2 49.6 1.6 -11.5008
500 3 30.4 49.6 1.6 -11.4527
502 3 33.6 49.6 1.6 -11.4572
504 2 36.8 49.6 1.6 -9.92426
506 1 40 49.6 1.6 -11.845
508 2 43.2 49.6 1.6 -9.83339
510 2 46.4 49.6 1.6 -9.85737
512 2 49.6 49.6 1.6 -9.89306
513 2 0 0 3.2 -9.9088
514 1 1.6 1.6 4.8 -11.8307
515 2 3.2 0 3.2 -9.82681
516 2 4.8 1.6 4.8 -9.84784
517 3 6.4 0 3.2 -11.4479
518 3 8 1.6 4.8 -11.3353
519 3 9.6 0 3.2 -11.4116
520 1 11.2 1.6 4.8 -11.6364
521 3 12.8 0 3.2 -11.3491
522 1 14.4 1.6 4.8 -11.8572
523 1 16 0 3.2 -11.7689
524 3 17.6 1.6 4.8 -11.4745
525 2 19.2 0 3.2 -9.8512
526 2 20.8 1.6 4.8 -9.97487
527 1 22.4 0 3.2 -11.8873
528 3 24 1.6 4.8 -11.3504
529 1 25.6 0 3.2 -11.8815
530 3 27.2 1.6 4.8 -11.4907
531 3 28.8 0 3.2 -11.4651
532 1 30.4 1.6 4.8 -11.9336
533 3 32 0 3.2 -11.548
534 3 33.6 1.6 4.8 -11.5921
535 3 35.2 0 3.2 -11.568
536 3 36.8 1.6 4.8 -11.5493
537 1 38.4 0 3.2 -11.885
538 3 40 1.6 4.8 -11.3699
539 2 41.6 0 3.2 -9.83852
540 2 43.2 1.6 4.8 -9.89367
541 1 44.8 0 3.2 -11.7568
542 3 46.4 1.6 4.8 -11.315
543 1 48 0 3.2 -11.875
544 3 49.6 1.6 4.8 -11.3716
545 2 0 3.2 3.2 -9.91353
546 2 1.6 4.8 4.8 -9.74674
547 2 3.2 3.2 3.2 -9.85727
548 2 4.8 4.8 4.8 -9.89233
549 3 6.4 3.2 3.2 -11.363
550 3 8 4.8 4.8 -11.3207
551 1 9.6 3.2 3.2 -11.63
552 2 11.2 4.8 4.8 -9.84978
553 1 12.8 3.2 3.2 -11.723
554 3 14.4 4.8 4.8 -11.3729
555 3 16 3.2 3.2 -11.3024
556 3 17.6 4.8 4.8 -11.4913
557 1 19.2 3.2 3.2 -11.8999
558 3 20.8 4.8 4.8 -11.4101
559 1 22.4 3.2 3.2 -11.8519
560 3 24 4.8 4.8 -11.4078
561 1 25.6 3.2 3.2 -11.9013
562 3 27.2 4.8 4.8 -11.4954
563 3 28.8 3.2 3.2 -11.4615
564 1 30.4 4.8 4.8 -11.9492
565 3 32 3.2 3.2 -11.4708
566 3 33.6 4.8 4.8 -11.4277
567 3 35.2 3.2 3.2 -11.5256
568 1 36.8 4.8 4.8 -11.7639
569 2 38.4 3.2 3.2 -9.88224
570 3 40 4.8 4.8 -11.3404
571 1 41.6 3.2 3.2 -11.8886
572 3 43.2 4.8 4.8 -11.3888
573 2 44.8 3.2 3.2 -9.72744
574 1 46.4 4.8 4.8 -11.7398
575 1 48 3.2 3.2 -11.7221
576 1 49.6 4.8 4.8 -11.812
577 3 0 6.4 3.2 -11.4426
578 1 1.6 8 4.8 -11.7751
579 2 3.2 6.4 3.2 -9.88913
580 1 4.8 8 4.8 -11.6607
581 3 6.4 6.4 3.2 -11.3033
582 3 8 8 4.8 -11.3712
583 2 9.6 6.4 3.2 -9.868
584 2 11.2 8 4.8 -9.90873
585 1 12.8 6.4 3.2 -11.8594
586 2 14.4 8 4.8 -9.87369
587 1 16 6.4 3.2 -11.9013
588 3 17.6 8 4.8 -11.4613
589 3 19.2 6.4 3.2 -11.3639
590 1 20.8 8 4.8 -11.8074
591 1 22.4 6.4 3.2 -11.8402
592 2 24 8 4.8 -9.90744
593 1 25.6 6.4 3.2 -11.9471
594 3 27.2 8 4.8 -11.4367
595 3 28.8 6.4 3.2 -11.4789
596 1 30.4 8 4.8 -11.9815
597 3 32 6.4 3.2 -11.3861
598 3 33.6 8 4.8 -11.4269
599 2 35.2 6.4 3.2 -9.93287
600 1 36.8 8 4.8 -11.8679
601 2 38.4 6.4 3.2 -9.8581
602 1 40 8 4.8 -11.8946
603 3 41.6 6.4 3.2 -11.3517
604 2 43.2 8 4.8 -9.92318
605 1 44.8 6.4 3.2 -11.7671
606 3 46.4 8 4.8 -11.3633
607 3 48 6.4 3.2 -11.3547
608 1 49.6 8 4.8 -11.9173
609 3 0 9.6 3.2 -11.3434
610 2 1.6 11.2 4.8 -9.92443
611 2 3.2 9.6 3.2 -9.8209
612 2 4.8 11.2 4.8 -9.81353
613 1 6.4 9.6 3.2 -11.7546
614 2 8 11.2 4.8 -9.90533
615 1 9.6 9.6 3.2 -11.7925
616 1 11.2 11.2 4.8 -11.7534
617 3 12.8 9.6 3.2 -11.2714
618 1 14.4 11.2 4.8 -11.7939
619 3 16 9.6 3.2 -11.4962
620 3 17.6 11.2 4.8 -11.4623
621 3 19.2 9.6 3.2 -11.5019
622 2 20.8 11.2 4.8 -9.95295
623 2 22.4 9.6 3.2 -9.92401
624 2 24 11.2 4.8 -9.91557
625 2 25.6 9.6 3.2 -9.96923
626 1 27.2 11.2 4.8 -11.8297
627 3 28.8 9.6 3.2 -11.5025
628 3 30.4 11.2 4.8 -11.4476
629 3 32 9.6 3.2 -11.5417
630 1 33.6 11.2 4.8 -11.9081
631 3 35.2 9.6 3.2 -11.4656
632 2 36.8 11.2 4.8 -9.84955
633 3 38.4 9.6 3.2 -11.4805
634 3 40 11.2 4.8 -11.5197
635 3 41.6 9.6 3.2 -11.5092
636 2 43.2 11.2 4.8 -10.0449
637 1 44.8 9.6 3.2 -11.8762
638 3 46.4 11.2 4.8 -11.5409
639 3 48 9.6 3.2 -11.4688
640 3 49.6 11.2 4.8 -11.4616
641 3 0 12.8 3.2 -11.3918
642 1 1.6 14.4 4.8 -11.8764
643 3 3.2 12.8 3.2 -11.3526
644 3 4.8 14.4 4.8 -11.3816
645 1 6.4 12.8 3.2 -11.8123
646 3 8 14.4 4.8 -11.4473
647 2 9.6 12.8 3.2 -9.89529
648 3 11.2 14.4 4.8 -11.4743
649 2 12.8 12.8 3.2 -9.98393
650 3 14.4 14.4 4.8 -11.475
651 3 16 12.8 3.2 -11.4816
652 3 17.6 14.4 4.8 -11.5386
653 1 19.2 12.8 3.2 -11.9069
654 3 20.8 14.4 4.8 -11.4449
655 1 22.4 12.8 3.2 -11.8893
656 3 24 14.4 4.8 -11.4301
657 2 25.6 12.8 3.2 -9.84793
658 1 27.2 14.4 4.8 -11.7357
659 2 28.8 12.8 3.2 -9.91701
660 3 30.4 14.4 4.8 -11.4796
661 3 32 12.8 3.2 -11.4896
662 1 33.6 14.4 4.8 -11.7895
663 2 35.2 12.8 3.2 -9.8778
664 1 36.8 14.4 4.8 -11.7649
665 2 38.4 12.8 3.2 -9.98344
666 2 40 14.4 4.8 -9.80997
667 3 41.6 12.8 3.2 -11.3843
668 3 43.2 14.4 4.8 -11.4807
669 1 44.8 12.8 3.2 -11.9243
670 3 46.4 14.4 4.8 -11.4016
671 3 48 12.8 3.2 -11.4839
672 1 49.6 14.4 4.8 -11.9456
673 3 0 16 3.2 -11.3281
674 1 1.6 17.6 4.8 -11.8331
675 2 3.2 16 3.2 -10.0132
676 3 4.8 17.6 4.8 -11.4127
677 3 6.4 16 3.2 -11.5512
678 1 8 17.6 4.8 -11.9834
679 3 9.6 16 3.2 -11.5732
680 3 11.2 17.6 4.8 -11.4614
681 3 12.8 16 3.2 -11.5386
682 1 14.4 17.6 4.8 -11.9933
683 3 16 16 3.2 -11.5283
684 3 17.6 17.6 4.8 -11.3842
685 3 19.2 16 3.2 -11.4705
686 1 20.8 17.6 4.8 -11.8837
687 3 22.4 16 3.2 -11.4369
688 3 24 17.6 4.8 -11.317
689 1 25.6 16 3.2 -11.7836
690 2 27.2 17.6 4.8 -9.81136
691 1 28.8 16 3.2 -11.778
692 3 30.4 17.6 4.8 -11.4962
693 3 32 16 3.2 -11.4791
694 3 33.6 17.6 4.8 -11.465
695 2 35.2 16 3.2 -9.9166
696 1 36.8 17.6 4.8 -11.8427
697 3 38.4 16 3.2 -11.2442
698 1 40 17.6 4.8 -11.7752
699 1 41.6 16 3.2 -11.8167
700 2 43.2 17.6 4.8 -9.9177
701 3 44.8 16 3.2 -11.3252
702 1 46.4 17.6 4.8 -11.8618
703 3 48 16 3.2 -11.366
704 1 49.6 17.6 4.8 -11.8951
705 3 0 19.2 3.2 -11.4418
706 1 1.6 20.8 4.8 -11.8285
707 3 3.2 19.2 3.2 -11.4839
708 1 4.8 20.8 4.8 -11.9358
709 3 6.4 19.2 3.2 -11.5699
710 2 8 20.8 4.8 -9.87185
711 3 9.6 19.2 3.2 -11.5689
712 2 11.2 20.8 4.8 -9.92493
713 2 12.8 19.2 3.2 -9.95428
714 3 14.4 20.8 4.8 -11.2297
715 3 16 19.2 3.2 -11.4312
716 1 17.6 20.8 4.8 -11.9025
717 2 19.2 19.2 3.2 -10.0047
718 3 20.8 20.8 4.8 -11.3916
719 1 22.4 19.2 3.2 -11.8388
720 3 24 20.8 4.8 -11.4383
721 1 25.6 19.2 3.2 -11.7833
722 3 27.2 20.8 4.8 -11.3788
723 1 28.8 19.2 3.2 -11.8233
724 3 30.4 20.8 4.8 -11.4744
725 3 32 19.2 3.2 -11.4618
726 3 33.6 20.8 4.8 -11.514
727 3 35.2 19.2 3.2 -11.5215
728 3 36.8 20.8 4.8 -11.479
729 3 38.4 19.2 3.2 -11.4476
730 3 40 20.8 4.8 -11.5244
731 2 41.6 19.2 3.2 -9.92661
732 3 43.2 20.8 4.8 -11.49
733 1 44.8 19.2 3.2 -11.7747
734 3 46.4 20.8 4.8 -11.4296
735 3 48 19.2 3.2 -11.4899
736 2 49.6 20.8 4.8 -9.91673
737 2 0 22.4 3.2 -9.95234
738 2 1.6 24 4.8 -9.91401
739 3 3.2 22.4 3.2 -11.3771
740 2 4.8 24 4.8 -9.85624
741 3 6.4 22.4 3.2 -11.5131
742 1 8 24 4.8 -11.8729
743 3 9.6 22.4 3.2 -11.5462
744 1 11.2 24 4.8 -11.7735
745 1 12.8 22.4 3.2 -11.7849
746 1 14.4 24 4.8 -11.7933
747 3 16 22.4 3.2 -11.3581
748 1 17.6 24 4.8 -11.7809
749 3 19.2 22.4 3.2 -11.3553
750 1 20.8 24 4.8 -11.7287
751 1 22.4 22.4 3.2 -11.8186
752 2 24 24 4.8 -9.95476
753 1 25.6 22.4 3.2 -11.8809
754 3 27.2 24 4.8 -11.5061
755 1 28.8 22.4 3.2 -11.9415
756 3 30.4 24 4.8 -11.2808
757 2 32 22.4 3.2 -9.94321
758 1 33.6 24 4.8 -11.7176
759 3 35.2 22.4 3.2 -11.3751
760 1 36.8 24 4.8 -11.8191
761 1 38.4 22.4 3.2 -11.8228
762 3 40 24 4.8 -11.3246
763 1 41.6 22.4 3.2 -11.8602
764 3 43.2 24 4.8 -11.3766
765 1 44.8 22.4 3.2 -11.9095
766 3 46.4 24 4.8 -11.4618
767 3 48 22.4 3.2 -11.5417
768 1 49.6 24 4.8 -11.839
769 3 0 25.6 3.2 -11.3778
771 1 3.2 25.6 3.2 -11.8191
773 2 6.4 25.6 3.2 -9.86013
775 3 9.6 25.6 3.2 -11.4747
777 3 12.8 25.6 3.2 -11.4728
779 3 16 25.6 3.2 -11.5467
781 3 19.2 25.6 3.2 -11.3383
783 1 22.4 25.6 3.2 -11.738
785 2 25.6 25.6 3.2 -9.88761
787 1 28.8 25.6 3.2 -11.8487
789 3 32 25.6 3.2 -11.3219
791 1 35.2 25.6 3.2 -11.8215
793 3 38.4 25.6 3.2 -11.4039
795 3 41.6 25.6 3.2 -11.3641
797 1 44.8 25.6 3.2 -11.9488
799 3 48 25.6 3.2 -11.4321
770 3 1.6 27.2 4.8 -11.5534
801 3 0 28.8 3.2 -11.5927
772 2 4.8 27.2 4.8 -9.8997
803 1 3.2 28.8 3.2 -11.8515
774 1 8 27.2 4.8 -11.8559
805 2 6.4 28.8 3.2 -9.89613
776 2 11.2 27.2 4.8 -9.96959
807 2 9.6 28.8 3.2 -9.93307
778 3 14.4 27.2 4.8 -11.4566
809 1 12.8 28.8 3.2 -11.8618
780 1 17.6 27.2 4.8 -11.8677
811 3 16 28.8 3.2 -11.447
782 1 20.8 27.2 4.8 -11.667
813 3 19.2 28.8 3.2 -11.4578
784 3 24 27.2 4.8 -11.3768
815 2 22.4 28.8 3.2 -9.86838
817 3 25.6 28.8 3.2 -11.4961
786 3 27.2 27.2 4.8 -11.4971
819 2 28.8 28.8 3.2 -9.92953
788 1 30.4 27.2 4.8 -11.7097
821 2 32 28.8 3.2 -9.95155
790 2 33.6 27.2 4.8 -9.85134
823 1 35.2 28.8 3.2 -11.8884
792 3 36.8 27.2 4.8 -11.3853
825 3 38.4 28.8 3.2 -11.381
794 1 40 27.2 4.8 -11.8899
827 2 41.6 28.8 3.2 -9.84218
796 1 43.2 27.2 4.8 -11.8948
829 3 44.8 28.8 3.2 -11.4159
798 3 46.4 27.2 4.8 -11.5354
831 3 48 28.8 3.2 -11.4948
800 3 49.6 27.2 4.8 -11.5069
802 3 1.6 30.4 4.8 -11.4525
833 3 0 32 3.2 -11.3942
804 2 4.8 30.4 4.8 -9.98573
835 2 3.2 32 3.2 -9.92781
806 3 8 30.4 4.8 -11.42
837 3 6.4 32 3.2 -11.4665
808 3 11.2 30.4 4.8 -11.4627
839 3 9.6 32 3.2 -11.4831
810 3 14.4 30.4 4.8 -11.5306
841 3 12.8 32 3.2 -11.4947
812 3 17.6 30.4 4.8 -11.3725
843 1 16 32 3.2 -11.9275
814 2 20.8 30.4 4.8 -9.7715
845 1 19.2 32 3.2 -11.8278
816 2 24 30.4 4.8 -9.88812
847 1 22.4 32 3.2 -11.6811
849 1 25.6 32 3.2 -11.8297
818 3 27.2 30.4 4.8 -11.5053
851 3 28.8 32 3.2 -11.3637
820 1 30.4 30.4 4.8 -11.9143
853 3 32 32 3.2 -11.3851
822 3 33.6 30.4 4.8 -11.4041
855 1 35.2 32 3.2 -11.8793
824 3 36.8 30.4 4.8 -11.2265
857 1 38.4 32 3.2 -11.8332
826 1 40 30.4 4.8 -11.6309
859 1 41.6 32 3.2 -11.5921
828 1 43.2 30.4 4.8 -11.6814
861 3 44.8 32 3.2 -11.358
830 3 46.4 30.4 4.8 -11.4609
863 1 48 32 3.2 -11.8569
832 3 49.6 30.4 4.8 -11.5054
834 1 1.6 33.6 4.8 -11.7397
865 2 0 35.2 3.2 -9.94371
836 3 4.8 33.6 4.8 -11.4184
867 3 3.2 35.2 3.2 -11.307
838 1 8 33.6 4.8 -11.885
869 3 6.4 35.2 3.2 -11.4569
840 1 11.2 33.6 4.8 -11.9167
871 2 9.6 35.2 3.2 -9.92193
842 3 14.4 33.6 4.8 -11.4907
873 3 12.8 35.2 3.2 -11.5553
844 3 17.6 33.6 4.8 -11.4191
875 3 16 35.2 3.2 -11.4242
846 1 20.8 33.6 4.8 -11.6831
877 2 19.2 35.2 3.2 -9.86423
848 3 24 33.6 4.8 -11.1138
879 2 22.4 35.2 3.2 -9.88762
881 2 25.6 35.2 3.2 -9.87035
850 2 27.2 33.6 4.8 -9.94367
883 1 28.8 35.2 3.2 -11.8296
852 1 30.4 33.6 4.8 -11.7898
885 1 32 35.2 3.2 -11.904
854 3 33.6 33.6 4.8 -11.4892
887 3 35.2 35.2 3.2 -11.4404
856 3 36.8 33.6 4.8 -11.3042
889 3 38.4 35.2 3.2 -11.441
858 3 40 33.6 4.8 -11.225
891 1 41.6 35.2 3.2 -11.8292
860 3 43.2 33.6 4.8 -11.3532
893 3 44.8 35.2 3.2 -11.381
862 3 46.4 33.6 4.8 -11.4072
895 1 48 35.2 3.2 -11.7404
864 2 49.6 33.6 4.8 -9.86739
866 1 1.6 36.8 4.8 -11.7914
897 3 0 38.4 3.2 -11.3813
868 1 4.8 36.8 4.8 -11.8313
899 1 3.2 38.4 3.2 -11.692
870 1 8 36.8 4.8 -11.8776
901 3 6.4 38.4 3.2 -11.3503
872 1 11.2 36.8 4.8 -11.8592
903 3 9.6 38.4 3.2 -11.4074
874 3 14.4 36.8 4.8 -11.4309
905 3 12.8 38.4 3.2 -11.5
876 1 17.6 36.8 4.8 -11.7787
907 2 16 38.4 3.2 -9.86867
878 1 20.8 36.8 4.8 -11.8189
909 2 19.2 38.4 3.2 -9.81122
880 2 24 36.8 4.8 -9.95039
911 3 22.4 38.4 3.2 -11.5859
913 3 25.6 38.4 3.2 -11.4699
882 3 27.2 36.8 4.8 -11.4631
915 1 28.8 38.4 3.2 -11.9221
884 3 30.4 36.8 4.8 -11.4342
917 3 32 38.4 3.2 -11.5235
886 3 33.6 36.8 4.8 -11.5063
919 3 35.2 38.4 3.2 -11.51
888 3 36.8 36.8 4.8 -11.5495
921 3 38.4 38.4 3.2 -11.4867
890 3 40 36.8 4.8 -11.4962
923 1 41.6 38.4 3.2 -12.0079
892 3 43.2 36.8 4.8 -11.5182
925 3 44.8 38.4 3.2 -11.3887
894 1 46.4 36.8 4.8 -11.7523
927 1 48 38.4 3.2 -11.7511
896 3 49.6 36.8 4.8 -11.2839
898 2 1.6 40 4.8 -9.93403
929 1 0 41.6 3.2 -11.8558
900 3 4.8 40 4.8 -11.2399
931 2 3.2 41.6 3.2 -9.92299
902 1 8 40 4.8 -11.9126
933 3 6.4 41.6 3.2 -11.4464
904 1 11.2 40 4.8 -11.8646
935 3 9.6 41.6 3.2 -11.3587
906 2 14.4 40 4.8 -9.983
937 3 12.8 41.6 3.2 -11.4944
908 1 17.6 40 4.8 -11.8011
939 3 16 41.6 3.2 -11.4046
910 3 20.8 40 4.8 -11.5343
941 3 19.2 41.6 3.2 -11.4732
912 2 24 40 4.8 -9.97
943 3 22.4 41.6 3.2 -11.3812
945 1 25.6 41.6 3.2 -11.8245
914 3 27.2 40 4.8 -11.5212
947 1 28.8 41.6 3.2 -11.8837
916 3 30.4 40 4.8 -11.484
949 3 32 41.6 3.2 -11.5695
918 1 33.6 40 4.8 -11.8496
951 2 35.2 41.6 3.2 -9.90875
920 3 36.8 40 4.8 -11.3347
953 2 38.4 41.6 3.2 -9.98009
922 3 40 40 4.8 -11.479
955 3 41.6 41.6 3.2 -11.4675
924 3 43.2 40 4.8 -11.5927
957 3 44.8 41.6 3.2 -11.4828
926 2 46.4 40 4.8 -9.89112
959 2 48 41.6 3.2 -9.81693
928 2 49.6 40 4.8 -10.0068
930 3 1.6 43.2 4.8 -11.3783
961 1 0 44.8 3.2 -11.7458
932 1 4.8 43.2 4.8 -11.8664
963 3 3.2 44.8 3.2 -11.4324
934 1 8 43.2 4.8 -11.7844
965 3 6.4 44.8 3.2 -11.4622
936 1 11.2 43.2 4.8 -11.885
967 3 9.6 44.8 3.2 -11.5204
938 3 14.4 43.2 4.8 -11.5127
969 3 12.8 44.8 3.2 -11.5415
940 3 17.6 43.2 4.8 -11.3827
971 1 16 44.8 3.2 -11.8905
942 3 20.8 43.2 4.8 -11.3942
973 2 19.2 44.8 3.2 -9.91266
944 1 24 43.2 4.8 -11.7375
975 1 22.4 44.8 3.2 -11.7129
977 2 25.6 44.8 3.2 -9.77498
946 3 27.2 43.2 4.8 -11.3875
979 3 28.8 44.8 3.2 -11.4032
948 3 30.4 43.2 4.8 -11.4639
981 3 32 44.8 3.2 -11.424
950 3 33.6 43.2 4.8 -11.4259
983 1 35.2 44.8 3.2 -11.7725
952 2 36.8 43.2 4.8 -9.80867
985 2 38.4 44.8 3.2 -9.81911
954 1 40 43.2 4.8 -11.8198
987 3 41.6 44.8 3.2 -11.4905
956 1 43.2 43.2 4.8 -11.8835
989 3 44.8 44.8 3.2 -11.0991
958 1 46.4 43.2 4.8 -11.7661
991 1 48 44.8 3.2 -11.6234
960 2 49.6 43.2 4.8 -9.84519
962 2 1.6 46.4 4.8 -9.97137
993 1 0 48 3.2 -11.7885
964 3 4.8 46.4 4.8 -11.4518
995 1 3.2 48 3.2 -11.8115
966 3 8 46.4 4.8 -11.5241
997 3 6.4 48 3.2 -11.5296
968 3 11.2 46.4 4.8 -11.4673
999 2 9.6 48 3.2 -10.0002
970 3 14.4 46.4 4.8 -11.5219
1001 3 12.8 48 3.2 -11.5075
972 3 17.6 46.4 4.8 -11.4083
1003 1 16 48 3.2 -11.7594
974 2 20.8 46.4 4.8 -10.0496
1005 1 19.2 48 3.2 -11.8166
976 3 24 46.4 4.8 -11.3918
1007 2 22.4 48 3.2 -9.92974
1009 2 25.6 48 3.2 -9.88355
978 3 27.2 46.4 4.8 -11.3273
1011 1 28.8 48 3.2 -11.797
980 3 30.4 46.4 4.8 -11.3281
1013 1 32 48 3.2 -11.7881
982 3 33.6 46.4 4.8 -11.1974
1015 1 35.2 48 3.2 -11.7592
984 2 36.8 46.4 4.8 -9.75926
1017 2 38.4 48 3.2 -9.87772
986 1 40 46.4 4.8 -11.7825
1019 3 41.6 48 3.2 -11.4354
988 3 43.2 46.4 4.8 -11.3115
1021 1 44.8 48 3.2 -11.7678
990 2 46.4 46.4 4.8 -9.87476
1023 1 48 48 3.2 -11.7377
992 2 49.6 46.4 4.8 -9.85594
994 2 1.6 49.6 4.8 -9.82946
996 1 4.8 49.6 4.8 -11.7757
998 3 8 49.6 4.8 -11.5011
1000 2 11.2 49.6 4.8 -9.94125
1002 2 14.4 49.6 4.8 -9.9487
1004 2 17.6 49.6 4.8 -9.87292
1006 3 20.8 49.6 4.8 -11.4469
1008 2 24 49.6 4.8 -9.92362
1010 2 27.2 49.6 4.8 -9.93302
1012 3 30.4 49.6 4.8 -11.3474
1014 3 33.6 49.6 4.8 -11.4906
1016 3 36.8 49.6 4.8 -11.4429
1018 2 40 49.6 4.8 -9.91566
1020 2 43.2 49.6 4.8 -9.87261
1022 3 46.4 49.6 4.8 -11.3085
1024 3 49.6 49.6 4.8 -11.4327
1025 3 0 0 6.4 -11.4631
1026 2 1.6 1.6 8 -9.88198
1027 2 3.2 0 6.4 -9.86853
1028 3 4.8 1.6 8 -11.3978
1029 1 6.4 0 6.4 -11.82
1030 3 8 1.6 8 -11.4474
1031 2 9.6 0 6.4 -9.8336
1032 1 11.2 1.6 8 -11.736
1033 3 12.8 0 6.4 -11.456
1034 3 14.4 1.6 8 -11.3859
1035 3 16 0 6.4 -11.4758
1036 3 17.6 1.6 8 -11.5099
1037 3 19.2 0 6.4 -11.5859
1038 1 20.8 1.6 8 -11.9044
1039 2 22.4 0 6.4 -9.94769
1040 2 24 1.6 8 -9.89116
1041 1 25.6 0 6.4 -11.8471
1042 3 27.2 1.6 8 -11.4823
1043 3 28.8 0 6.4 -11.3463
1044 2 30.4 1.6 8 -9.88667
1045 1 32 0 6.4 -11.8478
1046 2 33.6 1.6 8 -9.90907
1047 3 35.2 0 6.4 -11.4618
1048 3 36.8 1.6 8 -11.4118
1049 2 38.4 0 6.4 -9.86867
1050 3 40 1.6 8 -11.4495
1051 1 41.6 0 6.4 -11.8555
1052 3 43.2 1.6 8 -11.3999
1053 1 44.8 0 6.4 -11.8293
1054 1 46.4 1.6 8 -11.9292
1055 3 48 0 6.4 -11.4313
1056 1 49.6 1.6 8 -11.9032
1057 3 0 3.2 6.4 -11.3702
1058 1 1.6 4.8 8 -11.8545
1059 2 3.2 3.2 6.4 -9.87139
1060 3 4.8 4.8 8 -11.3863
1061 1 6.4 3.2 6.4 -11.8927
1062 3 8 4.8 8 -11.459
1063 1 9.6 3.2 6.4 -11.7444
1064 3 11.2 4.8 8 -11.3806
1065 3 12.8 3.2 6.4 -11.2753
1066 3 14.4 4.8 8 -11.4635
1067 2 16 3.2 6.4 -9.98196
1068 1 17.6 4.8 8 -11.8559
1069 3 19.2 3.2 6.4 -11.493
1070 1 20.8 4.8 8 -11.8793
1071 3 22.4 3.2 6.4 -11.4146
1072 1 24 4.8 8 -11.892
1073 2 25.6 3.2 6.4 -9.96965
1074 1 27.2 4.8 8 -11.9165
1075 3 28.8 3.2 6.4 -11.5442
1076 3 30.4 4.8 8 -11.3612
1077 3 32 3.2 6.4 -11.4134
1078 1 33.6 4.8 8 -11.7425
1079 3 35.2 3.2 6.4 -11.4815
1080 1 36.8 4.8 8 -11.7579
1081 1 38.4 3.2 6.4 -11.8346
1082 3 40 4.8 8 -11.3916
1083 1 41.6 3.2 6.4 -11.8993
1084 3 43.2 4.8 8 -11.5146
1085 3 44.8 3.2 6.4 -11.4168
1086 3 46.4 4.8 8 -11.3957
1087 2 48 3.2 6.4 -9.92374
1088 1 49.6 4.8 8 -11.8767
1089 3 0 6.4 6.4 -11.3276
1090 3 1.6 8 8 -11.401
1091 1 3.2 6.4 6.4 -11.7011
1092 3 4.8 8 8 -11.4457
1093 1 6.4 6.4 6.4 -11.8286
1094 3 8 8 8 -11.634
1095 1 9.6 6.4 6.4 -11.9147
1096 3 11.2 8 8 -11.5632
1097 2 12.8 6.4 6.4 -9.86982
1098 3 14.4 8 8 -11.3644
1099 1 16 6.4 6.4 -11.8427
1100 2 17.6 8 8 -9.92974
1101 3 19.2 6.4 6.4 -11.3927
1102 1 20.8 8 8 -11.7961
1103 2 22.4 6.4 6.4 -9.85661