 # Bcc Mo oriented X=[100] Y=[010] Z=[001].
  
        8192  atoms
           4  atom types
 
      0.000000000000      51.200000000000  xlo xhi
      0.000000000000      51.200000000000  ylo yhi
      0.000000000000      51.200000000000  zlo zhi
 
 
 
Atoms # atomic

1 4 0.0 0.0 0.0
2 3 1.6 1.6 1.6
3 3 3.2 0.0 0.0
4 4 4.8 1.6 1.6
5 2 6.4 0.0 0.0
6 2 8.0 1.6 1.6
7 3 9.6 0.0 0.0
8 2 11.2 1.6 1.6
9 4 12.8 0.0 0.0
10 4 14.4 1.6 1.6
11 2 16.0 0.0 0.0
12 4 17.6 1.6 1.6
13 1 19.2 0.0 0.0
14 3 20.8 1.6 1.6
15 1 22.4 0.0 0.0
16 1 24.0 1.6 1.6
17 1 25.6 0.0 0.0
18 4 27.2 1.6 1.6
19 1 28.8 0.0 0.0
20 4 30.4 1.6 1.6
21 2 32.0 0.0 0.0
22 2 33.6 1.6 1.6
23 4 35.2 0.0 0.0
24 4 36.8 1.6 1.6
25 1 38.4 0.0 0.0
26 3 40.0 1.6 1.6
27 4 41.6 0.0 0.0
28 4 43.2 1.6 1.6
29 3 44.8 0.0 0.0
30 4 46.4 1.6 1.6
31 3 48.0 0.0 0.0
32 4 49.6 1.6 1.6
33 4 0.0 3.2 0.0
34 3 1.6 4.8 1.6
35 1 3.2 3.2 0.0
36 4 4.8 4.8 1.6
37 3 6.4 3.2 0.0
38 4 8.0 4.8 1.6
39 3 9.6 3.2 0.0
40 1 11.2 4.8 1.6
41 4 12.8 3.2 0.0
42 3 14.4 4.8 1.6
43 2 16.0 3.2 0.0
44 1 17.6 4.8 1.6
45 3 19.2 3.2 0.0
46 3 20.8 4.8 1.6
47 4 22.4 3.2 0.0
48 3 24.0 4.8 1.6
49 3 25.6 3.2 0.0
50 3 27.2 4.8 1.6
51 1 28.8 3.2 0.0
52 3 30.4 4.8 1.6
53 1 32.0 3.2 0.0
54 2 33.6 4.8 1.6
55 1 35.2 3.2 0.0
56 4 36.8 4.8 1.6
57 4 38.4 3.2 0.0
58 1 40.0 4.8 1.6
59 2 41.6 3.2 0.0
60 4 43.2 4.8 1.6
61 4 44.8 3.2 0.0
62 1 46.4 4.8 1.6
63 4 48.0 3.2 0.0
64 3 49.6 4.8 1.6
65 4 0.0 6.4 0.0
66 4 1.6 8.0 1.6
67 1 3.2 6.4 0.0
68 4 4.8 8.0 1.6
69 3 6.4 6.4 0.0
70 1 8.0 8.0 1.6
71 3 9.6 6.4 0.0
72 4 11.2 8.0 1.6
73 3 12.8 6.4 0.0
74 4 14.4 8.0 1.6
75 1 16.0 6.4 0.0
76 3 17.6 8.0 1.6
77 4 19.2 6.4 0.0
78 3 20.8 8.0 1.6
79 2 22.4 6.4 0.0
80 4 24.0 8.0 1.6
81 3 25.6 6.4 0.0
82 4 27.2 8.0 1.6
83 1 28.8 6.4 0.0
84 3 30.4 8.0 1.6
85 4 32.0 6.4 0.0
86 4 33.6 8.0 1.6
87 1 35.2 6.4 0.0
88 3 36.8 8.0 1.6
89 2 38.4 6.4 0.0
90 1 40.0 8.0 1.6
91 2 41.6 6.4 0.0
92 3 43.2 8.0 1.6
93 3 44.8 6.4 0.0
94 2 46.4 8.0 1.6
95 3 48.0 6.4 0.0
96 3 49.6 8.0 1.6
97 1 0.0 9.6 0.0
98 2 1.6 11.2 1.6
99 3 3.2 9.6 0.0
100 3 4.8 11.2 1.6
101 4 6.4 9.6 0.0
102 4 8.0 11.2 1.6
103 3 9.6 9.6 0.0
104 2 11.2 11.2 1.6
105 3 12.8 9.6 0.0
106 4 14.4 11.2 1.6
107 1 16.0 9.6 0.0
108 4 17.6 11.2 1.6
109 3 19.2 9.6 0.0
110 4 20.8 11.2 1.6
111 1 22.4 9.6 0.0
112 4 24.0 11.2 1.6
113 1 25.6 9.6 0.0
114 1 27.2 11.2 1.6
115 4 28.8 9.6 0.0
116 2 30.4 11.2 1.6
117 3 32.0 9.6 0.0
118 3 33.6 11.2 1.6
119 1 35.2 9.6 0.0
120 1 36.8 11.2 1.6
121 4 38.4 9.6 0.0
122 1 40.0 11.2 1.6
123 3 41.6 9.6 0.0
124 4 43.2 11.2 1.6
125 4 44.8 9.6 0.0
126 1 46.4 11.2 1.6
127 3 48.0 9.6 0.0
128 4 49.6 11.2 1.6
129 1 0.0 12.8 0.0
130 3 1.6 14.4 1.6
131 4 3.2 12.8 0.0
132 2 4.8 14.4 1.6
133 2 6.4 12.8 0.0
134 3 8.0 14.4 1.6
135 4 9.6 12.8 0.0
136 4 11.2 14.4 1.6
137 1 12.8 12.8 0.0
138 1 14.4 14.4 1.6
139 3 16.0 12.8 0.0
140 3 17.6 14.4 1.6
141 4 19.2 12.8 0.0
142 1 20.8 14.4 1.6
143 4 22.4 12.8 0.0
144 1 24.0 14.4 1.6
145 4 25.6 12.8 0.0
146 3 27.2 14.4 1.6
147 4 28.8 12.8 0.0
148 4 30.4 14.4 1.6
149 3 32.0 12.8 0.0
150 3 33.6 14.4 1.6
151 3 35.2 12.8 0.0
152 3 36.8 14.4 1.6
153 1 38.4 12.8 0.0
154 4 40.0 14.4 1.6
155 1 41.6 12.8 0.0
156 4 43.2 14.4 1.6
157 3 44.8 12.8 0.0
158 4 46.4 14.4 1.6
159 1 48.0 12.8 0.0
160 2 49.6 14.4 1.6
161 1 0.0 16.0 0.0
162 4 1.6 17.6 1.6
163 3 3.2 16.0 0.0
164 1 4.8 17.6 1.6
165 2 6.4 16.0 0.0
166 4 8.0 17.6 1.6
167 3 9.6 16.0 0.0
168 4 11.2 17.6 1.6
169 3 12.8 16.0 0.0
170 1 14.4 17.6 1.6
171 4 16.0 16.0 0.0
172 3 17.6 17.6 1.6
173 4 19.2 16.0 0.0
174 3 20.8 17.6 1.6
175 1 22.4 16.0 0.0
176 1 24.0 17.6 1.6
177 2 25.6 16.0 0.0
178 1 27.2 17.6 1.6
179 1 28.8 16.0 0.0
180 1 30.4 17.6 1.6
181 4 32.0 16.0 0.0
182 4 33.6 17.6 1.6
183 4 35.2 16.0 0.0
184 3 36.8 17.6 1.6
185 1 38.4 16.0 0.0
186 3 40.0 17.6 1.6
187 4 41.6 16.0 0.0
188 4 43.2 17.6 1.6
189 1 44.8 16.0 0.0
190 4 46.4 17.6 1.6
191 3 48.0 16.0 0.0
192 3 49.6 17.6 1.6
193 1 0.0 19.2 0.0
194 3 1.6 20.8 1.6
195 4 3.2 19.2 0.0
196 4 4.8 20.8 1.6
197 1 6.4 19.2 0.0
198 3 8.0 20.8 1.6
199 1 9.6 19.2 0.0
200 2 11.2 20.8 1.6
201 4 12.8 19.2 0.0
202 3 14.4 20.8 1.6
203 3 16.0 19.2 0.0
204 3 17.6 20.8 1.6
205 3 19.2 19.2 0.0
206 3 20.8 20.8 1.6
207 1 22.4 19.2 0.0
208 2 24.0 20.8 1.6
209 3 25.6 19.2 0.0
210 4 27.2 20.8 1.6
211 3 28.8 19.2 0.0
212 4 30.4 20.8 1.6
213 3 32.0 19.2 0.0
214 4 33.6 20.8 1.6
215 1 35.2 19.2 0.0
216 1 36.8 20.8 1.6
217 3 38.4 19.2 0.0
218 1 40.0 20.8 1.6
219 4 41.6 19.2 0.0
220 4 43.2 20.8 1.6
221 4 44.8 19.2 0.0
222 4 46.4 20.8 1.6
223 4 48.0 19.2 0.0
224 3 49.6 20.8 1.6
225 4 0.0 22.4 0.0
226 3 1.6 24.0 1.6
227 3 3.2 22.4 0.0
228 4 4.8 24.0 1.6
229 1 6.4 22.4 0.0
230 4 8.0 24.0 1.6
231 3 9.6 22.4 0.0
232 1 11.2 24.0 1.6
233 4 12.8 22.4 0.0
234 4 14.4 24.0 1.6
235 3 16.0 22.4 0.0
236 3 17.6 24.0 1.6
237 3 19.2 22.4 0.0
238 4 20.8 24.0 1.6
239 4 22.4 22.4 0.0
240 4 24.0 24.0 1.6
241 4 25.6 22.4 0.0
242 3 27.2 24.0 1.6
243 4 28.8 22.4 0.0
244 4 30.4 24.0 1.6
245 3 32.0 22.4 0.0
246 3 33.6 24.0 1.6
247 3 35.2 22.4 0.0
248 4 36.8 24.0 1.6
249 4 38.4 22.4 0.0
250 1 40.0 24.0 1.6
251 1 41.6 22.4 0.0
252 3 43.2 24.0 1.6
253 3 44.8 22.4 0.0
254 1 46.4 24.0 1.6
255 2 48.0 22.4 0.0
256 4 49.6 24.0 1.6
257 4 0.0 25.6 0.0
258 4 1.6 27.2 1.6
259 1 3.2 25.6 0.0
260 4 4.8 27.2 1.6
261 3 6.4 25.6 0.0
262 4 8.0 27.2 1.6
263 3 9.6 25.6 0.0
264 2 11.2 27.2 1.6
265 4 12.8 25.6 0.0
266 4 14.4 27.2 1.6
267 3 16.0 25.6 0.0
268 1 17.6 27.2 1.6
269 2 19.2 25.6 0.0
270 1 20.8 27.2 1.6
271 3 22.4 25.6 0.0
272 1 24.0 27.2 1.6
273 4 25.6 25.6 0.0
274 3 27.2 27.2 1.6
275 4 28.8 25.6 0.0
276 2 30.4 27.2 1.6
277 4 32.0 25.6 0.0
278 2 33.6 27.2 1.6
279 4 35.2 25.6 0.0
280 4 36.8 27.2 1.6
281 4 38.4 25.6 0.0
282 4 40.0 27.2 1.6
283 4 41.6 25.6 0.0
284 4 43.2 27.2 1.6
285 4 44.8 25.6 0.0
286 3 46.4 27.2 1.6
287 4 48.0 25.6 0.0
288 4 49.6 27.2 1.6
289 1 0.0 28.8 0.0
290 4 1.6 30.4 1.6
291 4 3.2 28.8 0.0
292 1 4.8 30.4 1.6
293 4 6.4 28.8 0.0
294 4 8.0 30.4 1.6
295 1 9.6 28.8 0.0
296 4 11.2 30.4 1.6
297 1 12.8 28.8 0.0
298 2 14.4 30.4 1.6
299 3 16.0 28.8 0.0
300 4 17.6 30.4 1.6
301 3 19.2 28.8 0.0
302 4 20.8 30.4 1.6
303 1 22.4 28.8 0.0
304 4 24.0 30.4 1.6
305 4 25.6 28.8 0.0
306 3 27.2 30.4 1.6
307 2 28.8 28.8 0.0
308 4 30.4 30.4 1.6
309 3 32.0 28.8 0.0
310 3 33.6 30.4 1.6
311 3 35.2 28.8 0.0
312 4 36.8 30.4 1.6
313 4 38.4 28.8 0.0
314 4 40.0 30.4 1.6
315 1 41.6 28.8 0.0
316 4 43.2 30.4 1.6
317 3 44.8 28.8 0.0
318 4 46.4 30.4 1.6
319 3 48.0 28.8 0.0
320 1 49.6 30.4 1.6
321 4 0.0 32.0 0.0
322 4 1.6 33.6 1.6
323 1 3.2 32.0 0.0
324 3 4.8 33.6 1.6
325 3 6.4 32.0 0.0
326 1 8.0 33.6 1.6
327 3 9.6 32.0 0.0
328 4 11.2 33.6 1.6
329 1 12.8 32.0 0.0
330 2 14.4 33.6 1.6
331 2 16.0 32.0 0.0
332 2 17.6 33.6 1.6
333 4 19.2 32.0 0.0
334 4 20.8 33.6 1.6
335 1 22.4 32.0 0.0
336 4 24.0 33.6 1.6
337 2 25.6 32.0 0.0
338 4 27.2 33.6 1.6
339 2 28.8 32.0 0.0
340 2 30.4 33.6 1.6
341 2 32.0 32.0 0.0
342 3 33.6 33.6 1.6
343 4 35.2 32.0 0.0
344 4 36.8 33.6 1.6
345 4 38.4 32.0 0.0
346 3 40.0 33.6 1.6
347 1 41.6 32.0 0.0
348 1 43.2 33.6 1.6
349 3 44.8 32.0 0.0
350 4 46.4 33.6 1.6
351 1 48.0 32.0 0.0
352 1 49.6 33.6 1.6
353 1 0.0 35.2 0.0
354 4 1.6 36.8 1.6
355 3 3.2 35.2 0.0
356 4 4.8 36.8 1.6
357 4 6.4 35.2 0.0
358 4 8.0 36.8 1.6
359 3 9.6 35.2 0.0
360 4 11.2 36.8 1.6
361 3 12.8 35.2 0.0
362 3 14.4 36.8 1.6
363 4 16.0 35.2 0.0
364 4 17.6 36.8 1.6
365 4 19.2 35.2 0.0
366 1 20.8 36.8 1.6
367 2 22.4 35.2 0.0
368 3 24.0 36.8 1.6
369 3 25.6 35.2 0.0
370 4 27.2 36.8 1.6
371 4 28.8 35.2 0.0
372 1 30.4 36.8 1.6
373 3 32.0 35.2 0.0
374 4 33.6 36.8 1.6
375 4 35.2 35.2 0.0
376 1 36.8 36.8 1.6
377 4 38.4 35.2 0.0
378 3 40.0 36.8 1.6
379 3 41.6 35.2 0.0
380 1 43.2 36.8 1.6
381 3 44.8 35.2 0.0
382 3 46.4 36.8 1.6
383 4 48.0 35.2 0.0
384 4 49.6 36.8 1.6
385 4 0.0 38.4 0.0
386 3 1.6 40.0 1.6
387 3 3.2 38.4 0.0
388 1 4.8 40.0 1.6
389 3 6.4 38.4 0.0
390 4 8.0 40.0 1.6
391 4 9.6 38.4 0.0
392 1 11.2 40.0 1.6
393 1 12.8 38.4 0.0
394 4 14.4 40.0 1.6
395 4 16.0 38.4 0.0
396 3 17.6 40.0 1.6
397 3 19.2 38.4 0.0
398 4 20.8 40.0 1.6
399 3 22.4 38.4 0.0
400 3 24.0 40.0 1.6
401 4 25.6 38.4 0.0
402 2 27.2 40.0 1.6
403 4 28.8 38.4 0.0
404 2 30.4 40.0 1.6
405 4 32.0 38.4 0.0
406 4 33.6 40.0 1.6
407 3 35.2 38.4 0.0
408 3 36.8 40.0 1.6
409 4 38.4 38.4 0.0
410 1 40.0 40.0 1.6
411 1 41.6 38.4 0.0
412 4 43.2 40.0 1.6
413 4 44.8 38.4 0.0
414 3 46.4 40.0 1.6
415 4 48.0 38.4 0.0
416 3 49.6 40.0 1.6
417 4 0.0 41.6 0.0
418 3 1.6 43.2 1.6
419 4 3.2 41.6 0.0
420 1 4.8 43.2 1.6
421 2 6.4 41.6 0.0
422 4 8.0 43.2 1.6
423 1 9.6 41.6 0.0
424 4 11.2 43.2 1.6
425 3 12.8 41.6 0.0
426 1 14.4 43.2 1.6
427 3 16.0 41.6 0.0
428 2 17.6 43.2 1.6
429 3 19.2 41.6 0.0
430 1 20.8 43.2 1.6
431 1 22.4 41.6 0.0
432 4 24.0 43.2 1.6
433 2 25.6 41.6 0.0
434 2 27.2 43.2 1.6
435 1 28.8 41.6 0.0
436 1 30.4 43.2 1.6
437 3 32.0 41.6 0.0
438 1 33.6 43.2 1.6
439 4 35.2 41.6 0.0
440 4 36.8 43.2 1.6
441 3 38.4 41.6 0.0
442 3 40.0 43.2 1.6
443 1 41.6 41.6 0.0
444 4 43.2 43.2 1.6
445 3 44.8 41.6 0.0
446 3 46.4 43.2 1.6
447 3 48.0 41.6 0.0
448 4 49.6 43.2 1.6
449 1 0.0 44.8 0.0
450 1 1.6 46.4 1.6
451 4 3.2 44.8 0.0
452 2 4.8 46.4 1.6
453 2 6.4 44.8 0.0
454 3 8.0 46.4 1.6
455 3 9.6 44.8 0.0
456 4 11.2 46.4 1.6
457 4 12.8 44.8 0.0
458 2 14.4 46.4 1.6
459 4 16.0 44.8 0.0
460 4 17.6 46.4 1.6
461 1 19.2 44.8 0.0
462 4 20.8 46.4 1.6
463 3 22.4 44.8 0.0
464 3 24.0 46.4 1.6
465 3 25.6 44.8 0.0
466 3 27.2 46.4 1.6
467 3 28.8 44.8 0.0
468 2 30.4 46.4 1.6
469 1 32.0 44.8 0.0
470 1 33.6 46.4 1.6
471 1 35.2 44.8 0.0
472 3 36.8 46.4 1.6
473 1 38.4 44.8 0.0
474 3 40.0 46.4 1.6
475 3 41.6 44.8 0.0
476 4 43.2 46.4 1.6
477 3 44.8 44.8 0.0
478 1 46.4 46.4 1.6
479 1 48.0 44.8 0.0
480 1 49.6 46.4 1.6
481 1 0.0 48.0 0.0
482 1 1.6 49.6 1.6
483 1 3.2 48.0 0.0
484 1 4.8 49.6 1.6
485 4 6.4 48.0 0.0
486 4 8.0 49.6 1.6
487 1 9.6 48.0 0.0
488 1 11.2 49.6 1.6
489 3 12.8 48.0 0.0
490 4 14.4 49.6 1.6
491 4 16.0 48.0 0.0
492 4 17.6 49.6 1.6
493 3 19.2 48.0 0.0
494 1 20.8 49.6 1.6
495 4 22.4 48.0 0.0
496 4 24.0 49.6 1.6
497 1 25.6 48.0 0.0
498 1 27.2 49.6 1.6
499 2 28.8 48.0 0.0
500 1 30.4 49.6 1.6
501 4 32.0 48.0 0.0
502 1 33.6 49.6 1.6
503 1 35.2 48.0 0.0
504 4 36.8 49.6 1.6
505 3 38.4 48.0 0.0
506 4 40.0 49.6 1.6
507 4 41.6 48.0 0.0
508 3 43.2 49.6 1.6
509 3 44.8 48.0 0.0
510 1 46.4 49.6 1.6
511 3 48.0 48.0 0.0
512 4 49.6 49.6 1.6
513 4 0.0 0.0 3.2
514 4 1.6 1.6 4.8
515 4 3.2 0.0 3.2
516 1 4.8 1.6 4.8
517 1 6.4 0.0 3.2
518 4 8.0 1.6 4.8
519 4 9.6 0.0 3.2
520 1 11.2 1.6 4.8
521 1 12.8 0.0 3.2
522 2 14.4 1.6 4.8
523 3 16.0 0.0 3.2
524 3 17.6 1.6 4.8
525 2 19.2 0.0 3.2
526 4 20.8 1.6 4.8
527 3 22.4 0.0 3.2
528 3 24.0 1.6 4.8
529 4 25.6 0.0 3.2
530 3 27.2 1.6 4.8
531 1 28.8 0.0 3.2
532 1 30.4 1.6 4.8
533 3 32.0 0.0 3.2
534 3 33.6 1.6 4.8
535 3 35.2 0.0 3.2
536 3 36.8 1.6 4.8
537 3 38.4 0.0 3.2
538 4 40.0 1.6 4.8
539 4 41.6 0.0 3.2
540 1 43.2 1.6 4.8
541 4 44.8 0.0 3.2
542 3 46.4 1.6 4.8
543 3 48.0 0.0 3.2
544 1 49.6 1.6 4.8
545 1 0.0 3.2 3.2
546 3 1.6 4.8 4.8
547 3 3.2 3.2 3.2
548 1 4.8 4.8 4.8
549 1 6.4 3.2 3.2
550 3 8.0 4.8 4.8
551 1 9.6 3.2 3.2
552 4 11.2 4.8 4.8
553 4 12.8 3.2 3.2
554 4 14.4 4.8 4.8
555 4 16.0 3.2 3.2
556 4 17.6 4.8 4.8
557 4 19.2 3.2 3.2
558 3 20.8 4.8 4.8
559 1 22.4 3.2 3.2
560 4 24.0 4.8 4.8
561 1 25.6 3.2 3.2
562 1 27.2 4.8 4.8
563 4 28.8 3.2 3.2
564 1 30.4 4.8 4.8
565 4 32.0 3.2 3.2
566 4 33.6 4.8 4.8
567 4 35.2 3.2 3.2
568 1 36.8 4.8 4.8
569 4 38.4 3.2 3.2
570 4 40.0 4.8 4.8
571 1 41.6 3.2 3.2
572 2 43.2 4.8 4.8
573 4 44.8 3.2 3.2
574 1 46.4 4.8 4.8
575 1 48.0 3.2 3.2
576 1 49.6 4.8 4.8
577 4 0.0 6.4 3.2
578 4 1.6 8.0 4.8
579 3 3.2 6.4 3.2
580 4 4.8 8.0 4.8
581 1 6.4 6.4 3.2
582 4 8.0 8.0 4.8
583 3 9.6 6.4 3.2
584 3 11.2 8.0 4.8
585 1 12.8 6.4 3.2
586 4 14.4 8.0 4.8
587 3 16.0 6.4 3.2
588 4 17.6 8.0 4.8
589 3 19.2 6.4 3.2
590 3 20.8 8.0 4.8
591 3 22.4 6.4 3.2
592 4 24.0 8.0 4.8
593 3 25.6 6.4 3.2
594 3 27.2 8.0 4.8
595 1 28.8 6.4 3.2
596 1 30.4 8.0 4.8
597 2 32.0 6.4 3.2
598 1 33.6 8.0 4.8
599 4 35.2 6.4 3.2
600 4 36.8 8.0 4.8
601 4 38.4 6.4 3.2
602 3 40.0 8.0 4.8
603 3 41.6 6.4 3.2
604 3 43.2 8.0 4.8
605 4 44.8 6.4 3.2
606 3 46.4 8.0 4.8
607 1 48.0 6.4 3.2
608 3 49.6 8.0 4.8
609 2 0.0 9.6 3.2
610 4 1.6 11.2 4.8
611 1 3.2 9.6 3.2
612 3 4.8 11.2 4.8
613 1 6.4 9.6 3.2
614 3 8.0 11.2 4.8
615 4 9.6 9.6 3.2
616 4 11.2 11.2 4.8
617 4 12.8 9.6 3.2
618 4 14.4 11.2 4.8
619 3 16.0 9.6 3.2
620 4 17.6 11.2 4.8
621 2 19.2 9.6 3.2
622 3 20.8 11.2 4.8
623 4 22.4 9.6 3.2
624 3 24.0 11.2 4.8
625 4 25.6 9.6 3.2
626 1 27.2 11.2 4.8
627 4 28.8 9.6 3.2
628 4 30.4 11.2 4.8
629 1 32.0 9.6 3.2
630 3 33.6 11.2 4.8
631 3 35.2 9.6 3.2
632 1 36.8 11.2 4.8
633 4 38.4 9.6 3.2
634 3 40.0 11.2 4.8
635 3 41.6 9.6 3.2
636 3 43.2 11.2 4.8
637 4 44.8 9.6 3.2
638 1 46.4 11.2 4.8
639 4 48.0 9.6 3.2
640 1 49.6 11.2 4.8
641 4 0.0 12.8 3.2
642 4 1.6 14.4 4.8
643 4 3.2 12.8 3.2
644 2 4.8 14.4 4.8
645 1 6.4 12.8 3.2
646 4 8.0 14.4 4.8
647 2 9.6 12.8 3.2
648 4 11.2 14.4 4.8
649 1 12.8 12.8 3.2
650 2 14.4 14.4 4.8
651 4 16.0 12.8 3.2
652 4 17.6 14.4 4.8
653 3 19.2 12.8 3.2
654 4 20.8 14.4 4.8
655 2 22.4 12.8 3.2
656 4 24.0 14.4 4.8
657 2 25.6 12.8 3.2
658 1 27.2 14.4 4.8
659 1 28.8 12.8 3.2
660 3 30.4 14.4 4.8
661 3 32.0 12.8 3.2
662 3 33.6 14.4 4.8
663 3 35.2 12.8 3.2
664 4 36.8 14.4 4.8
665 4 38.4 12.8 3.2
666 4 40.0 14.4 4.8
667 1 41.6 12.8 3.2
668 3 43.2 14.4 4.8
669 4 44.8 12.8 3.2
670 2 46.4 14.4 4.8
671 4 48.0 12.8 3.2
672 1 49.6 14.4 4.8
673 4 0.0 16.0 3.2
674 2 1.6 17.6 4.8
675 4 3.2 16.0 3.2
676 1 4.8 17.6 4.8
677 2 6.4 16.0 3.2
678 4 8.0 17.6 4.8
679 1 9.6 16.0 3.2
680 4 11.2 17.6 4.8
681 2 12.8 16.0 3.2
682 3 14.4 17.6 4.8
683 4 16.0 16.0 3.2
684 3 17.6 17.6 4.8
685 4 19.2 16.0 3.2
686 4 20.8 17.6 4.8
687 4 22.4 16.0 3.2
688 4 24.0 17.6 4.8
689 1 25.6 16.0 3.2
690 2 27.2 17.6 4.8
691 3 28.8 16.0 3.2
692 3 30.4 17.6 4.8
693 3 32.0 16.0 3.2
694 3 33.6 17.6 4.8
695 4 35.2 16.0 3.2
696 3 36.8 17.6 4.8
697 3 38.4 16.0 3.2
698 2 40.0 17.6 4.8
699 4 41.6 16.0 3.2
700 3 43.2 17.6 4.8
701 4 44.8 16.0 3.2
702 2 46.4 17.6 4.8
703 4 48.0 16.0 3.2
704 3 49.6 17.6 4.8
705 2 0.0 19.2 3.2
706 3 1.6 20.8 4.8
707 4 3.2 19.2 3.2
708 4 4.8 20.8 4.8
709 4 6.4 19.2 3.2
710 4 8.0 20.8 4.8
711 2 9.6 19.2 3.2
712 2 11.2 20.8 4.8
713 3 12.8 19.2 3.2
714 1 14.4 20.8 4.8
715 2 16.0 19.2 3.2
716 1 17.6 20.8 4.8
717 3 19.2 19.2 3.2
718 4 20.8 20.8 4.8
719 3 22.4 19.2 3.2
720 3 24.0 20.8 4.8
721 3 25.6 19.2 3.2
722 3 27.2 20.8 4.8
723 2 28.8 19.2 3.2
724 4 30.4 20.8 4.8
725 2 32.0 19.2 3.2
726 3 33.6 20.8 4.8
727 2 35.2 19.2 3.2
728 4 36.8 20.8 4.8
729 4 38.4 19.2 3.2
730 3 40.0 20.8 4.8
731 1 41.6 19.2 3.2
732 3 43.2 20.8 4.8
733 4 44.8 19.2 3.2
734 3 46.4 20.8 4.8
735 1 48.0 19.2 3.2
736 1 49.6 20.8 4.8
737 2 0.0 22.4 3.2
738 3 1.6 24.0 4.8
739 2 3.2 22.4 3.2
740 4 4.8 24.0 4.8
741 1 6.4 22.4 3.2
742 4 8.0 24.0 4.8
743 1 9.6 22.4 3.2
744 1 11.2 24.0 4.8
745 4 12.8 22.4 3.2
746 4 14.4 24.0 4.8
747 3 16.0 22.4 3.2
748 2 17.6 24.0 4.8
749 4 19.2 22.4 3.2
750 1 20.8 24.0 4.8
751 4 22.4 22.4 3.2
752 4 24.0 24.0 4.8
753 1 25.6 22.4 3.2
754 3 27.2 24.0 4.8
755 1 28.8 22.4 3.2
756 1 30.4 24.0 4.8
757 1 32.0 22.4 3.2
758 4 33.6 24.0 4.8
759 4 35.2 22.4 3.2
760 4 36.8 24.0 4.8
761 3 38.4 22.4 3.2
762 4 40.0 24.0 4.8
763 1 41.6 22.4 3.2
764 4 43.2 24.0 4.8
765 3 44.8 22.4 3.2
766 3 46.4 24.0 4.8
767 4 48.0 22.4 3.2
768 4 49.6 24.0 4.8
769 4 0.0 25.6 3.2
770 1 1.6 27.2 4.8
771 1 3.2 25.6 3.2
772 4 4.8 27.2 4.8
773 1 6.4 25.6 3.2
774 1 8.0 27.2 4.8
775 1 9.6 25.6 3.2
776 2 11.2 27.2 4.8
777 4 12.8 25.6 3.2
778 4 14.4 27.2 4.8
779 4 16.0 25.6 3.2
780 1 17.6 27.2 4.8
781 3 19.2 25.6 3.2
782 1 20.8 27.2 4.8
783 3 22.4 25.6 3.2
784 4 24.0 27.2 4.8
785 4 25.6 25.6 3.2
786 3 27.2 27.2 4.8
787 2 28.8 25.6 3.2
788 4 30.4 27.2 4.8
789 1 32.0 25.6 3.2
790 4 33.6 27.2 4.8
791 3 35.2 25.6 3.2
792 3 36.8 27.2 4.8
793 4 38.4 25.6 3.2
794 3 40.0 27.2 4.8
795 3 41.6 25.6 3.2
796 4 43.2 27.2 4.8
797 1 44.8 25.6 3.2
798 4 46.4 27.2 4.8
799 3 48.0 25.6 3.2
800 1 49.6 27.2 4.8
801 4 0.0 28.8 3.2
802 1 1.6 30.4 4.8
803 4 3.2 28.8 3.2
804 4 4.8 30.4 4.8
805 1 6.4 28.8 3.2
806 2 8.0 30.4 4.8
807 1 9.6 28.8 3.2
808 3 11.2 30.4 4.8
809 4 12.8 28.8 3.2
810 1 14.4 30.4 4.8
811 4 16.0 28.8 3.2
812 3 17.6 30.4 4.8
813 3 19.2 28.8 3.2
814 4 20.8 30.4 4.8
815 1 22.4 28.8 3.2
816 3 24.0 30.4 4.8
817 4 25.6 28.8 3.2
818 4 27.2 30.4 4.8
819 1 28.8 28.8 3.2
820 3 30.4 30.4 4.8
821 1 32.0 28.8 3.2
822 4 33.6 30.4 4.8
823 4 35.2 28.8 3.2
824 1 36.8 30.4 4.8
825 1 38.4 28.8 3.2
826 2 40.0 30.4 4.8
827 1 41.6 28.8 3.2
828 4 43.2 30.4 4.8
829 1 44.8 28.8 3.2
830 4 46.4 30.4 4.8
831 4 48.0 28.8 3.2
832 4 49.6 30.4 4.8
833 2 0.0 32.0 3.2
834 4 1.6 33.6 4.8
835 1 3.2 32.0 3.2
836 1 4.8 33.6 4.8
837 4 6.4 32.0 3.2
838 4 8.0 33.6 4.8
839 1 9.6 32.0 3.2
840 4 11.2 33.6 4.8
841 3 12.8 32.0 3.2
842 3 14.4 33.6 4.8
843 1 16.0 32.0 3.2
844 3 17.6 33.6 4.8
845 3 19.2 32.0 3.2
846 3 20.8 33.6 4.8
847 4 22.4 32.0 3.2
848 4 24.0 33.6 4.8
849 3 25.6 32.0 3.2
850 3 27.2 33.6 4.8
851 1 28.8 32.0 3.2
852 4 30.4 33.6 4.8
853 4 32.0 32.0 3.2
854 2 33.6 33.6 4.8
855 4 35.2 32.0 3.2
856 4 36.8 33.6 4.8
857 4 38.4 32.0 3.2
858 1 40.0 33.6 4.8
859 1 41.6 32.0 3.2
860 4 43.2 33.6 4.8
861 1 44.8 32.0 3.2
862 3 46.4 33.6 4.8
863 1 48.0 32.0 3.2
864 3 49.6 33.6 4.8
865 1 0.0 35.2 3.2
866 3 1.6 36.8 4.8
867 4 3.2 35.2 3.2
868 4 4.8 36.8 4.8
869 3 6.4 35.2 3.2
870 3 8.0 36.8 4.8
871 1 9.6 35.2 3.2
872 1 11.2 36.8 4.8
873 3 12.8 35.2 3.2
874 1 14.4 36.8 4.8
875 3 16.0 35.2 3.2
876 4 17.6 36.8 4.8
877 2 19.2 35.2 3.2
878 4 20.8 36.8 4.8
879 4 22.4 35.2 3.2
880 2 24.0 36.8 4.8
881 4 25.6 35.2 3.2
882 4 27.2 36.8 4.8
883 1 28.8 35.2 3.2
884 1 30.4 36.8 4.8
885 3 32.0 35.2 3.2
886 3 33.6 36.8 4.8
887 1 35.2 35.2 3.2
888 3 36.8 36.8 4.8
889 4 38.4 35.2 3.2
890 1 40.0 36.8 4.8
891 3 41.6 35.2 3.2
892 4 43.2 36.8 4.8
893 3 44.8 35.2 3.2
894 4 46.4 36.8 4.8
895 4 48.0 35.2 3.2
896 4 49.6 36.8 4.8
897 4 0.0 38.4 3.2
898 2 1.6 40.0 4.8
899 1 3.2 38.4 3.2
900 4 4.8 40.0 4.8
901 1 6.4 38.4 3.2
902 1 8.0 40.0 4.8
903 3 9.6 38.4 3.2
904 4 11.2 40.0 4.8
905 1 12.8 38.4 3.2
906 3 14.4 40.0 4.8
907 3 16.0 38.4 3.2
908 4 17.6 40.0 4.8
909 3 19.2 38.4 3.2
910 1 20.8 40.0 4.8
911 1 22.4 38.4 3.2
912 3 24.0 40.0 4.8
913 3 25.6 38.4 3.2
914 1 27.2 40.0 4.8
915 4 28.8 38.4 3.2
916 4 30.4 40.0 4.8
917 4 32.0 38.4 3.2
918 2 33.6 40.0 4.8
919 1 35.2 38.4 3.2
920 4 36.8 40.0 4.8
921 4 38.4 38.4 3.2
922 1 40.0 40.0 4.8
923 3 41.6 38.4 3.2
924 1 43.2 40.0 4.8
925 4 44.8 38.4 3.2
926 3 46.4 40.0 4.8
927 4 48.0 38.4 3.2
928 3 49.6 40.0 4.8
929 2 0.0 41.6 3.2
930 3 1.6 43.2 4.8
931 1 3.2 41.6 3.2
932 4 4.8 43.2 4.8
933 4 6.4 41.6 3.2
934 4 8.0 43.2 4.8
935 4 9.6 41.6 3.2
936 4 11.2 43.2 4.8
937 1 12.8 41.6 3.2
938 4 14.4 43.2 4.8
939 4 16.0 41.6 3.2
940 4 17.6 43.2 4.8
941 4 19.2 41.6 3.2
942 3 20.8 43.2 4.8
943 3 22.4 41.6 3.2
944 3 24.0 43.2 4.8
945 2 25.6 41.6 3.2
946 3 27.2 43.2 4.8
947 1 28.8 41.6 3.2
948 4 30.4 43.2 4.8
949 4 32.0 41.6 3.2
950 3 33.6 43.2 4.8
951 4 35.2 41.6 3.2
952 4 36.8 43.2 4.8
953 3 38.4 41.6 3.2
954 4 40.0 43.2 4.8
955 4 41.6 41.6 3.2
956 2 43.2 43.2 4.8
957 4 44.8 41.6 3.2
958 4 46.4 43.2 4.8
959 1 48.0 41.6 3.2
960 2 49.6 43.2 4.8
961 4 0.0 44.8 3.2
962 2 1.6 46.4 4.8
963 3 3.2 44.8 3.2
964 4 4.8 46.4 4.8
965 4 6.4 44.8 3.2
966 1 8.0 46.4 4.8
967 4 9.6 44.8 3.2
968 1 11.2 46.4 4.8
969 4 12.8 44.8 3.2
970 3 14.4 46.4 4.8
971 2 16.0 44.8 3.2
972 3 17.6 46.4 4.8
973 4 19.2 44.8 3.2
974 1 20.8 46.4 4.8
975 4 22.4 44.8 3.2
976 1 24.0 46.4 4.8
977 4 25.6 44.8 3.2
978 1 27.2 46.4 4.8
979 1 28.8 44.8 3.2
980 4 30.4 46.4 4.8
981 1 32.0 44.8 3.2
982 4 33.6 46.4 4.8
983 2 35.2 44.8 3.2
984 4 36.8 46.4 4.8
985 1 38.4 44.8 3.2
986 2 40.0 46.4 4.8
987 2 41.6 44.8 3.2
988 4 43.2 46.4 4.8
989 4 44.8 44.8 3.2
990 3 46.4 46.4 4.8
991 4 48.0 44.8 3.2
992 3 49.6 46.4 4.8
993 1 0.0 48.0 3.2
994 4 1.6 49.6 4.8
995 3 3.2 48.0 3.2
996 1 4.8 49.6 4.8
997 4 6.4 48.0 3.2
998 3 8.0 49.6 4.8
999 4 9.6 48.0 3.2
1000 1 11.2 49.6 4.8
1001 3 12.8 48.0 3.2
1002 2 14.4 49.6 4.8
1003 1 16.0 48.0 3.2
1004 1 17.6 49.6 4.8
1005 4 19.2 48.0 3.2
1006 4 20.8 49.6 4.8
1007 4 22.4 48.0 3.2
1008 2 24.0 49.6 4.8
1009 1 25.6 48.0 3.2
1010 4 27.2 49.6 4.8
1011 2 28.8 48.0 3.2
1012 2 30.4 49.6 4.8
1013 1 32.0 48.0 3.2
1014 4 33.6 49.6 4.8
1015 4 35.2 48.0 3.2
1016 1 36.8 49.6 4.8
1017 4 38.4 48.0 3.2
1018 1 40.0 49.6 4.8
1019 2 41.6 48.0 3.2
1020 4 43.2 49.6 4.8
1021 2 44.8 48.0 3.2
1022 4 46.4 49.6 4.8
1023 1 48.0 48.0 3.2
1024 1 49.6 49.6 4.8
1025 4 0.0 0.0 6.4
1026 4 1.6 1.6 8.0
1027 3 3.2 0.0 6.4
1028 4 4.8 1.6 8.0
1029 1 6.4 0.0 6.4
1030 4 8.0 1.6 8.0
1031 4 9.6 0.0 6.4
1032 3 11.2 1.6 8.0
1033 3 12.8 0.0 6.4
1034 3 14.4 1.6 8.0
1035 4 16.0 0.0 6.4
1036 4 17.6 1.6 8.0
1037 1 19.2 0.0 6.4
1038 4 20.8 1.6 8.0
1039 1 22.4 0.0 6.4
1040 4 24.0 1.6 8.0
1041 4 25.6 0.0 6.4
1042 4 27.2 1.6 8.0
1043 1 28.8 0.0 6.4
1044 4 30.4 1.6 8.0
1045 1 32.0 0.0 6.4
1046 1 33.6 1.6 8.0
1047 1 35.2 0.0 6.4
1048 3 36.8 1.6 8.0
1049 4 38.4 0.0 6.4
1050 4 40.0 1.6 8.0
1051 4 41.6 0.0 6.4
1052 1 43.2 1.6 8.0
1053 1 44.8 0.0 6.4
1054 3 46.4 1.6 8.0
1055 4 48.0 0.0 6.4
1056 4 49.6 1.6 8.0
1057 3 0.0 3.2 6.4
1058 1 1.6 4.8 8.0
1059 4 3.2 3.2 6.4
1060 1 4.8 4.8 8.0
1061 3 6.4 3.2 6.4
1062 3 8.0 4.8 8.0
1063 1 9.6 3.2 6.4
1064 3 11.2 4.8 8.0
1065 4 12.8 3.2 6.4
1066 3 14.4 4.8 8.0
1067 3 16.0 3.2 6.4
1068 1 17.6 4.8 8.0
1069 3 19.2 3.2 6.4
1070 4 20.8 4.8 8.0
1071 2 22.4 3.2 6.4
1072 3 24.0 4.8 8.0
1073 3 25.6 3.2 6.4
1074 4 27.2 4.8 8.0
1075 3 28.8 3.2 6.4
1076 4 30.4 4.8 8.0
1077 4 32.0 3.2 6.4
1078 4 33.6 4.8 8.0
1079 4 35.2 3.2 6.4
1080 4 36.8 4.8 8.0
1081 3 38.4 3.2 6.4
1082 1 40.0 4.8 8.0
1083 1 41.6 3.2 6.4
1084 3 43.2 4.8 8.0
1085 3 44.8 3.2 6.4
1086 2 46.4 4.8 8.0
1087 4 48.0 3.2 6.4
1088 3 49.6 4.8 8.0
1089 4 0.0 6.4 6.4
1090 4 1.6 8.0 8.0
1091 4 3.2 6.4 6.4
1092 4 4.8 8.0 8.0
1093 3 6.4 6.4 6.4
1094 2 8.0 8.0 8.0
1095 4 9.6 6.4 6.4
1096 4 11.2 8.0 8.0
1097 1 12.8 6.4 6.4
1098 4 14.4 8.0 8.0
1099 4 16.0 6.4 6.4
1100 4 17.6 8.0 8.0
1101 4 19.2 6.4 6.4
1102 2 20.8 8.0 8.0
1103 1 22.4 6.4 6.4
1104 3 24.0 8.0 8.0
1105 1 25.6 6.4 6.4
1106 4 27.2 8.0 8.0
1107 3 28.8 6.4 6.4
1108 4 30.4 8.0 8.0
1109 1 32.0 6.4 6.4
1110 2 33.6 8.0 8.0
1111 4 35.2 6.4 6.4
1112 4 36.8 8.0 8.0
1113 1 38.4 6.4 6.4
1114 4 40.0 8.0 8.0
1115 4 41.6 6.4 6.4
1116 4 43.2 8.0 8.0
1117 4 44.8 6.4 6.4
1118 1 46.4 8.0 8.0
1119 4 48.0 6.4 6.4
1120 3 49.6 8.0 8.0
1121 3 0.0 9.6 6.4
1122 4 1.6 11.2 8.0
1123 1 3.2 9.6 6.4
1124 2 4.8 11.2 8.0
1125 3 6.4 9.6 6.4
1126 4 8.0 11.2 8.0
1127 2 9.6 9.6 6.4
1128 3 11.2 11.2 8.0
1129 4 12.8 9.6 6.4
1130 3 14.4 11.2 8.0
1131 1 16.0 9.6 6.4
1132 3 17.6 11.2 8.0
1133 3 19.2 9.6 6.4
1134 2 20.8 11.2 8.0
1135 4 22.4 9.6 6.4
1136 3 24.0 11.2 8.0
1137 4 25.6 9.6 6.4
1138 4 27.2 11.2 8.0
1139 4 28.8 9.6 6.4
1140 2 30.4 11.2 8.0
1141 4 32.0 9.6 6.4
1142 2 33.6 11.2 8.0
1143 3 35.2 9.6 6.4
1144 2 36.8 11.2 8.0
1145 3 38.4 9.6 6.4
1146 4 40.0 11.2 8.0
1147 4 41.6 9.6 6.4
1148 4 43.2 11.2 8.0
1149 4 44.8 9.6 6.4
1150 4 46.4 11.2 8.0
1151 2 48.0 9.6 6.4
1152 4 49.6 11.2 8.0
1153 4 0.0 12.8 6.4
1154 1 1.6 14.4 8.0
1155 4 3.2 12.8 6.4
1156 4 4.8 14.4 8.0
1157 3 6.4 12.8 6.4
1158 4 8.0 14.4 8.0
1159 4 9.6 12.8 6.4
1160 3 11.2 14.4 8.0
1161 1 12.8 12.8 6.4
1162 3 14.4 14.4 8.0
1163 4 16.0 12.8 6.4
1164 4 17.6 14.4 8.0
1165 2 19.2 12.8 6.4
1166 4 20.8 14.4 8.0
1167 4 22.4 12.8 6.4
1168 1 24.0 14.4 8.0
1169 1 25.6 12.8 6.4
1170 4 27.2 14.4 8.0
1171 3 28.8 12.8 6.4
1172 2 30.4 14.4 8.0
1173 3 32.0 12.8 6.4
1174 2 33.6 14.4 8.0
1175 4 35.2 12.8 6.4
1176 4 36.8 14.4 8.0
1177 2 38.4 12.8 6.4
1178 2 40.0 14.4 8.0
1179 4 41.6 12.8 6.4
1180 3 43.2 14.4 8.0
1181 4 44.8 12.8 6.4
1182 4 46.4 14.4 8.0
1183 4 48.0 12.8 6.4
1184 3 49.6 14.4 8.0
1185 3 0.0 16.0 6.4
1186 1 1.6 17.6 8.0
1187 3 3.2 16.0 6.4
1188 3 4.8 17.6 8.0
1189 1 6.4 16.0 6.4
1190 3 8.0 17.6 8.0
1191 2 9.6 16.0 6.4
1192 1 11.2 17.6 8.0
1193 3 12.8 16.0 6.4
1194 3 14.4 17.6 8.0
1195 3 16.0 16.0 6.4
1196 4 17.6 17.6 8.0
1197 4 19.2 16.0 6.4
1198 3 20.8 17.6 8.0
1199 4 22.4 16.0 6.4
1200 2 24.0 17.6 8.0
1201 3 25.6 16.0 6.4
1202 4 27.2 17.6 8.0
1203 1 28.8 16.0 6.4
1204 4 30.4 17.6 8.0
1205 1 32.0 16.0 6.4
1206 4 33.6 17.6 8.0
1207 3 35.2 16.0 6.4
1208 1 36.8 17.6 8.0
1209 3 38.4 16.0 6.4
1210 1 40.0 17.6 8.0
1211 4 41.6 16.0 6.4
1212 1 43.2 17.6 8.0
1213 3 44.8 16.0 6.4
1214 4 46.4 17.6 8.0
1215 4 48.0 16.0 6.4
1216 3 49.6 17.6 8.0
1217 2 0.0 19.2 6.4
1218 1 1.6 20.8 8.0
1219 1 3.2 19.2 6.4
1220 2 4.8 20.8 8.0
1221 4 6.4 19.2 6.4
1222 4 8.0 20.8 8.0
1223 3 9.6 19.2 6.4
1224 1 11.2 20.8 8.0
1225 4 12.8 19.2 6.4
1226 4 14.4 20.8 8.0
1227 1 16.0 19.2 6.4
1228 1 17.6 20.8 8.0
1229 3 19.2 19.2 6.4
1230 2 20.8 20.8 8.0
1231 2 22.4 19.2 6.4
1232 1 24.0 20.8 8.0
1233 4 25.6 19.2 6.4
1234 1 27.2 20.8 8.0
1235 3 28.8 19.2 6.4
1236 4 30.4 20.8 8.0
1237 4 32.0 19.2 6.4
1238 1 33.6 20.8 8.0
1239 3 35.2 19.2 6.4
1240 3 36.8 20.8 8.0
1241 4 38.4 19.2 6.4
1242 4 40.0 20.8 8.0
1243 4 41.6 19.2 6.4
1244 2 43.2 20.8 8.0
1245 1 44.8 19.2 6.4
1246 4 46.4 20.8 8.0
1247 3 48.0 19.2 6.4
1248 3 49.6 20.8 8.0
1249 2 0.0 22.4 6.4
1250 1 1.6 24.0 8.0
1251 3 3.2 22.4 6.4
1252 1 4.8 24.0 8.0
1253 4 6.4 22.4 6.4
1254 3 8.0 24.0 8.0
1255 3 9.6 22.4 6.4
1256 4 11.2 24.0 8.0
1257 3 12.8 22.4 6.4
1258 1 14.4 24.0 8.0
1259 3 16.0 22.4 6.4
1260 3 17.6 24.0 8.0
1261 4 19.2 22.4 6.4
1262 1 20.8 24.0 8.0
1263 4 22.4 22.4 6.4
1264 1 24.0 24.0 8.0
1265 4 25.6 22.4 6.4
1266 1 27.2 24.0 8.0
1267 3 28.8 22.4 6.4
1268 1 30.4 24.0 8.0
1269 3 32.0 22.4 6.4
1270 1 33.6 24.0 8.0
1271 3 35.2 22.4 6.4
1272 4 36.8 24.0 8.0
1273 1 38.4 22.4 6.4
1274 1 40.0 24.0 8.0
1275 3 41.6 22.4 6.4
1276 2 43.2 24.0 8.0
1277 1 44.8 22.4 6.4
1278 2 46.4 24.0 8.0
1279 4 48.0 22.4 6.4
1280 4 49.6 24.0 8.0
1281 1 0.0 25.6 6.4
1282 2 1.6 27.2 8.0
1283 3 3.2 25.6 6.4
1284 1 4.8 27.2 8.0
1285 3 6.4 25.6 6.4
1286 1 8.0 27.2 8.0
1287 4 9.6 25.6 6.4
1288 1 11.2 27.2 8.0
1289 3 12.8 25.6 6.4
1290 4 14.4 27.2 8.0
1291 2 16.0 25.6 6.4
1292 4 17.6 27.2 8.0
1293 1 19.2 25.6 6.4
1294 2 20.8 27.2 8.0
1295 2 22.4 25.6 6.4
1296 1 24.0 27.2 8.0
1297 2 25.6 25.6 6.4
1298 1 27.2 27.2 8.0
1299 2 28.8 25.6 6.4
1300 4 30.4 27.2 8.0
1301 4 32.0 25.6 6.4
1302 2 33.6 27.2 8.0
1303 4 35.2 25.6 6.4
1304 4 36.8 27.2 8.0
1305 4 38.4 25.6 6.4
1306 1 40.0 27.2 8.0
1307 4 41.6 25.6 6.4
1308 4 43.2 27.2 8.0
1309 4 44.8 25.6 6.4
1310 2 46.4 27.2 8.0
1311 1 48.0 25.6 6.4
1312 3 49.6 27.2 8.0
1313 3 0.0 28.8 6.4
1314 4 1.6 30.4 8.0
1315 1 3.2 28.8 6.4
1316 4 4.8 30.4 8.0
1317 4 6.4 28.8 6.4
1318 4 8.0 30.4 8.0
1319 4 9.6 28.8 6.4
1320 1 11.2 30.4 8.0
1321 4 12.8 28.8 6.4
1322 4 14.4 30.4 8.0
1323 2 16.0 28.8 6.4
1324 2 17.6 30.4 8.0
1325 1 19.2 28.8 6.4
1326 1 20.8 30.4 8.0
1327 1 22.4 28.8 6.4
1328 2 24.0 30.4 8.0
1329 3 25.6 28.8 6.4
1330 1 27.2 30.4 8.0
1331 4 28.8 28.8 6.4
1332 3 30.4 30.4 8.0
1333 1 32.0 28.8 6.4
1334 1 33.6 30.4 8.0
1335 4 35.2 28.8 6.4
1336 3 36.8 30.4 8.0
1337 1 38.4 28.8 6.4
1338 1 40.0 30.4 8.0
1339 4 41.6 28.8 6.4
1340 4 43.2 30.4 8.0
1341 4 44.8 28.8 6.4
1342 4 46.4 30.4 8.0
1343 3 48.0 28.8 6.4
1344 4 49.6 30.4 8.0
1345 1 0.0 32.0 6.4
1346 4 1.6 33.6 8.0
1347 3 3.2 32.0 6.4
1348 3 4.8 33.6 8.0
1349 2 6.4 32.0 6.4
1350 4 8.0 33.6 8.0
1351 4 9.6 32.0 6.4
1352 3 11.2 33.6 8.0
1353 2 12.8 32.0 6.4
1354 4 14.4 33.6 8.0
1355 4 16.0 32.0 6.4
1356 4 17.6 33.6 8.0
1357 4 19.2 32.0 6.4
1358 1 20.8 33.6 8.0
1359 3 22.4 32.0 6.4
1360 4 24.0 33.6 8.0
1361 1 25.6 32.0 6.4
1362 4 27.2 33.6 8.0
1363 3 28.8 32.0 6.4
1364 3 30.4 33.6 8.0
1365 1 32.0 32.0 6.4
1366 1 33.6 33.6 8.0
1367 3 35.2 32.0 6.4
1368 4 36.8 33.6 8.0
1369 4 38.4 32.0 6.4
1370 1 40.0 33.6 8.0
1371 4 41.6 32.0 6.4
1372 3 43.2 33.6 8.0
1373 4 44.8 32.0 6.4
1374 3 46.4 33.6 8.0
1375 1 48.0 32.0 6.4
1376 4 49.6 33.6 8.0
1377 2 0.0 35.2 6.4
1378 3 1.6 36.8 8.0
1379 1 3.2 35.2 6.4
1380 4 4.8 36.8 8.0
1381 4 6.4 35.2 6.4
1382 3 8.0 36.8 8.0
1383 2 9.6 35.2 6.4
1384 4 11.2 36.8 8.0
1385 4 12.8 35.2 6.4
1386 1 14.4 36.8 8.0
1387 3 16.0 35.2 6.4
1388 4 17.6 36.8 8.0
1389 1 19.2 35.2 6.4
1390 3 20.8 36.8 8.0
1391 4 22.4 35.2 6.4
1392 4 24.0 36.8 8.0
1393 3 25.6 35.2 6.4
1394 4 27.2 36.8 8.0
1395 1 28.8 35.2 6.4
1396 4 30.4 36.8 8.0
1397 3 32.0 35.2 6.4
1398 1 33.6 36.8 8.0
1399 4 35.2 35.2 6.4
1400 1 36.8 36.8 8.0
1401 3 38.4 35.2 6.4
1402 2 40.0 36.8 8.0
1403 4 41.6 35.2 6.4
1404 4 43.2 36.8 8.0
1405 4 44.8 35.2 6.4
1406 3 46.4 36.8 8.0
1407 1 48.0 35.2 6.4
1408 2 49.6 36.8 8.0
1409 1 0.0 38.4 6.4
1410 4 1.6 40.0 8.0
1411 1 3.2 38.4 6.4
1412 1 4.8 40.0 8.0
1413 3 6.4 38.4 6.4
1414 4 8.0 40.0 8.0
1415 1 9.6 38.4 6.4
1416 2 11.2 40.0 8.0
1417 4 12.8 38.4 6.4
1418 4 14.4 40.0 8.0
1419 2 16.0 38.4 6.4
1420 2 17.6 40.0 8.0
1421 4 19.2 38.4 6.4
1422 1 20.8 40.0 8.0
1423 1 22.4 38.4 6.4
1424 3 24.0 40.0 8.0
1425 4 25.6 38.4 6.4
1426 1 27.2 40.0 8.0
1427 4 28.8 38.4 6.4
1428 4 30.4 40.0 8.0
1429 2 32.0 38.4 6.4
1430 1 33.6 40.0 8.0
1431 1 35.2 38.4 6.4
1432 1 36.8 40.0 8.0
1433 3 38.4 38.4 6.4
1434 3 40.0 40.0 8.0
1435 3 41.6 38.4 6.4
1436 4 43.2 40.0 8.0
1437 1 44.8 38.4 6.4
1438 4 46.4 40.0 8.0
1439 1 48.0 38.4 6.4
1440 1 49.6 40.0 8.0
1441 4 0.0 41.6 6.4
1442 4 1.6 43.2 8.0
1443 1 3.2 41.6 6.4
1444 1 4.8 43.2 8.0
1445 4 6.4 41.6 6.4
1446 4 8.0 43.2 8.0
1447 1 9.6 41.6 6.4
1448 4 11.2 43.2 8.0
1449 4 12.8 41.6 6.4
1450 1 14.4 43.2 8.0
1451 4 16.0 41.6 6.4
1452 2 17.6 43.2 8.0
1453 1 19.2 41.6 6.4
1454 3 20.8 43.2 8.0
1455 2 22.4 41.6 6.4
1456 1 24.0 43.2 8.0
1457 1 25.6 41.6 6.4
1458 1 27.2 43.2 8.0
1459 1 28.8 41.6 6.4
1460 4 30.4 43.2 8.0
1461 4 32.0 41.6 6.4
1462 1 33.6 43.2 8.0
1463 1 35.2 41.6 6.4
1464 3 36.8 43.2 8.0
1465 4 38.4 41.6 6.4
1466 4 40.0 43.2 8.0
1467 1 41.6 41.6 6.4
1468 4 43.2 43.2 8.0
1469 4 44.8 41.6 6.4
1470 3 46.4 43.2 8.0
1471 2 48.0 41.6 6.4
1472 4 49.6 43.2 8.0
1473 3 0.0 44.8 6.4
1474 1 1.6 46.4 8.0
1475 1 3.2 44.8 6.4
1476 4 4.8 46.4 8.0
1477 3 6.4 44.8 6.4
1478 4 8.0 46.4 8.0
1479 1 9.6 44.8 6.4
1480 3 11.2 46.4 8.0
1481 4 12.8 44.8 6.4
1482 4 14.4 46.4 8.0
1483 2 16.0 44.8 6.4
1484 4 17.6 46.4 8.0
1485 4 19.2 44.8 6.4
1486 1 20.8 46.4 8.0
1487 1 22.4 44.8 6.4
1488 3 24.0 46.4 8.0
1489 2 25.6 44.8 6.4
1490 4 27.2 46.4 8.0
1491 3 28.8 44.8 6.4
1492 2 30.4 46.4 8.0
1493 4 32.0 44.8 6.4
1494 1 33.6 46.4 8.0
1495 1 35.2 44.8 6.4
1496 1 36.8 46.4 8.0
1497 1 38.4 44.8 6.4
1498 3 40.0 46.4 8.0
1499 4 41.6 44.8 6.4
1500 1 43.2 46.4 8.0