 # Bcc Mo oriented X=[100] Y=[010] Z=[001].
  
        8192  atoms
           4  atom types
 
      0.000000000000      51.200000000000  xlo xhi
      0.000000000000      51.200000000000  ylo yhi
      0.000000000000      51.200000000000  zlo zhi
 
 
 
Atoms # atomic

1 1 0.0 0.0 0.0
2 4 1.6 1.6 1.6
3 1 3.2 0.0 0.0
4 3 4.8 1.6 1.6
5 4 6.4 0.0 0.0
6 3 8.0 1.6 1.6
7 1 9.6 0.0 0.0
8 3 11.2 1.6 1.6
9 1 12.8 0.0 0.0
10 3 14.4 1.6 1.6
11 1 16.0 0.0 0.0
12 3 17.6 1.6 1.6
13 1 19.2 0.0 0.0
14 3 20.8 1.6 1.6
15 1 22.4 0.0 0.0
16 2 24.0 1.6 1.6
17 4 25.6 0.0 0.0
18 2 27.2 1.6 1.6
19 4 28.8 0.0 0.0
20 4 30.4 1.6 1.6
21 3 32.0 0.0 0.0
22 3 33.6 1.6 1.6
23 3 35.2 0.0 0.0
24 4 36.8 1.6 1.6
25 4 38.4 0.0 0.0
26 4 40.0 1.6 1.6
27 4 41.6 0.0 0.0
28 3 43.2 1.6 1.6
29 1 44.8 0.0 0.0
30 2 46.4 1.6 1.6
31 1 48.0 0.0 0.0
32 3 49.6 1.6 1.6
33 1 0.0 3.2 0.0
34 3 1.6 4.8 1.6
35 1 3.2 3.2 0.0
36 3 4.8 4.8 1.6
37 1 6.4 3.2 0.0
38 3 8.0 4.8 1.6
39 4 9.6 3.2 0.0
40 3 11.2 4.8 1.6
41 1 12.8 3.2 0.0
42 3 14.4 4.8 1.6
43 1 16.0 3.2 0.0
44 3 17.6 4.8 1.6
45 1 19.2 3.2 0.0
46 3 20.8 4.8 1.6
47 1 22.4 3.2 0.0
48 4 24.0 4.8 1.6
49 1 25.6 3.2 0.0
50 3 27.2 4.8 1.6
51 4 28.8 3.2 0.0
52 2 30.4 4.8 1.6
53 4 32.0 3.2 0.0
54 3 33.6 4.8 1.6
55 4 35.2 3.2 0.0
56 4 36.8 4.8 1.6
57 1 38.4 3.2 0.0
58 3 40.0 4.8 1.6
59 4 41.6 3.2 0.0
60 2 43.2 4.8 1.6
61 4 44.8 3.2 0.0
62 2 46.4 4.8 1.6
63 4 48.0 3.2 0.0
64 3 49.6 4.8 1.6
65 4 0.0 6.4 0.0
66 2 1.6 8.0 1.6
67 1 3.2 6.4 0.0
68 3 4.8 8.0 1.6
69 1 6.4 6.4 0.0
70 3 8.0 8.0 1.6
71 1 9.6 6.4 0.0
72 3 11.2 8.0 1.6
73 1 12.8 6.4 0.0
74 3 14.4 8.0 1.6
75 4 16.0 6.4 0.0
76 4 17.6 8.0 1.6
77 1 19.2 6.4 0.0
78 3 20.8 8.0 1.6
79 1 22.4 6.4 0.0
80 3 24.0 8.0 1.6
81 4 25.6 6.4 0.0
82 4 27.2 8.0 1.6
83 4 28.8 6.4 0.0
84 2 30.4 8.0 1.6
85 4 32.0 6.4 0.0
86 3 33.6 8.0 1.6
87 4 35.2 6.4 0.0
88 4 36.8 8.0 1.6
89 4 38.4 6.4 0.0
90 2 40.0 8.0 1.6
91 1 41.6 6.4 0.0
92 4 43.2 8.0 1.6
93 4 44.8 6.4 0.0
94 4 46.4 8.0 1.6
95 4 48.0 6.4 0.0
96 4 49.6 8.0 1.6
97 1 0.0 9.6 0.0
98 4 1.6 11.2 1.6
99 1 3.2 9.6 0.0
100 3 4.8 11.2 1.6
101 1 6.4 9.6 0.0
102 3 8.0 11.2 1.6
103 1 9.6 9.6 0.0
104 4 11.2 11.2 1.6
105 1 12.8 9.6 0.0
106 3 14.4 11.2 1.6
107 4 16.0 9.6 0.0
108 3 17.6 11.2 1.6
109 4 19.2 9.6 0.0
110 2 20.8 11.2 1.6
111 4 22.4 9.6 0.0
112 4 24.0 11.2 1.6
113 4 25.6 9.6 0.0
114 3 27.2 11.2 1.6
115 4 28.8 9.6 0.0
116 2 30.4 11.2 1.6
117 1 32.0 9.6 0.0
118 3 33.6 11.2 1.6
119 4 35.2 9.6 0.0
120 3 36.8 11.2 1.6
121 4 38.4 9.6 0.0
122 3 40.0 11.2 1.6
123 1 41.6 9.6 0.0
124 3 43.2 11.2 1.6
125 4 44.8 9.6 0.0
126 3 46.4 11.2 1.6
127 1 48.0 9.6 0.0
128 3 49.6 11.2 1.6
129 1 0.0 12.8 0.0
130 3 1.6 14.4 1.6
131 4 3.2 12.8 0.0
132 3 4.8 14.4 1.6
133 1 6.4 12.8 0.0
134 3 8.0 14.4 1.6
135 4 9.6 12.8 0.0
136 4 11.2 14.4 1.6
137 1 12.8 12.8 0.0
138 3 14.4 14.4 1.6
139 1 16.0 12.8 0.0
140 4 17.6 14.4 1.6
141 4 19.2 12.8 0.0
142 2 20.8 14.4 1.6
143 4 22.4 12.8 0.0
144 2 24.0 14.4 1.6
145 4 25.6 12.8 0.0
146 4 27.2 14.4 1.6
147 4 28.8 12.8 0.0
148 2 30.4 14.4 1.6
149 2 32.0 12.8 0.0
150 4 33.6 14.4 1.6
151 4 35.2 12.8 0.0
152 3 36.8 14.4 1.6
153 1 38.4 12.8 0.0
154 3 40.0 14.4 1.6
155 1 41.6 12.8 0.0
156 2 43.2 14.4 1.6
157 1 44.8 12.8 0.0
158 3 46.4 14.4 1.6
159 1 48.0 12.8 0.0
160 4 49.6 14.4 1.6
161 1 0.0 16.0 0.0
162 3 1.6 17.6 1.6
163 1 3.2 16.0 0.0
164 3 4.8 17.6 1.6
165 1 6.4 16.0 0.0
166 4 8.0 17.6 1.6
167 1 9.6 16.0 0.0
168 2 11.2 17.6 1.6
169 4 12.8 16.0 0.0
170 4 14.4 17.6 1.6
171 4 16.0 16.0 0.0
172 3 17.6 17.6 1.6
173 4 19.2 16.0 0.0
174 4 20.8 17.6 1.6
175 1 22.4 16.0 0.0
176 4 24.0 17.6 1.6
177 4 25.6 16.0 0.0
178 3 27.2 17.6 1.6
179 1 28.8 16.0 0.0
180 3 30.4 17.6 1.6
181 4 32.0 16.0 0.0
182 3 33.6 17.6 1.6
183 4 35.2 16.0 0.0
184 4 36.8 17.6 1.6
185 4 38.4 16.0 0.0
186 3 40.0 17.6 1.6
187 4 41.6 16.0 0.0
188 3 43.2 17.6 1.6
189 1 44.8 16.0 0.0
190 4 46.4 17.6 1.6
191 1 48.0 16.0 0.0
192 3 49.6 17.6 1.6
193 4 0.0 19.2 0.0
194 4 1.6 20.8 1.6
195 1 3.2 19.2 0.0
196 3 4.8 20.8 1.6
197 1 6.4 19.2 0.0
198 3 8.0 20.8 1.6
199 4 9.6 19.2 0.0
200 4 11.2 20.8 1.6
201 1 12.8 19.2 0.0
202 3 14.4 20.8 1.6
203 4 16.0 19.2 0.0
204 2 17.6 20.8 1.6
205 4 19.2 19.2 0.0
206 4 20.8 20.8 1.6
207 4 22.4 19.2 0.0
208 3 24.0 20.8 1.6
209 1 25.6 19.2 0.0
210 3 27.2 20.8 1.6
211 1 28.8 19.2 0.0
212 4 30.4 20.8 1.6
213 1 32.0 19.2 0.0
214 3 33.6 20.8 1.6
215 4 35.2 19.2 0.0
216 2 36.8 20.8 1.6
217 1 38.4 19.2 0.0
218 3 40.0 20.8 1.6
219 1 41.6 19.2 0.0
220 3 43.2 20.8 1.6
221 1 44.8 19.2 0.0
222 4 46.4 20.8 1.6
223 1 48.0 19.2 0.0
224 3 49.6 20.8 1.6
225 4 0.0 22.4 0.0
226 4 1.6 24.0 1.6
227 1 3.2 22.4 0.0
228 3 4.8 24.0 1.6
229 4 6.4 22.4 0.0
230 4 8.0 24.0 1.6
231 4 9.6 22.4 0.0
232 4 11.2 24.0 1.6
233 3 12.8 22.4 0.0
234 4 14.4 24.0 1.6
235 4 16.0 22.4 0.0
236 4 17.6 24.0 1.6
237 3 19.2 22.4 0.0
238 4 20.8 24.0 1.6
239 4 22.4 22.4 0.0
240 4 24.0 24.0 1.6
241 4 25.6 22.4 0.0
242 4 27.2 24.0 1.6
243 4 28.8 22.4 0.0
244 4 30.4 24.0 1.6
245 4 32.0 22.4 0.0
246 4 33.6 24.0 1.6
247 4 35.2 22.4 0.0
248 4 36.8 24.0 1.6
249 4 38.4 22.4 0.0
250 3 40.0 24.0 1.6
251 4 41.6 22.4 0.0
252 4 43.2 24.0 1.6
253 4 44.8 22.4 0.0
254 3 46.4 24.0 1.6
255 4 48.0 22.4 0.0
256 3 49.6 24.0 1.6
257 4 0.0 25.6 0.0
258 2 1.6 27.2 1.6
259 1 3.2 25.6 0.0
260 3 4.8 27.2 1.6
261 4 6.4 25.6 0.0
262 2 8.0 27.2 1.6
263 1 9.6 25.6 0.0
264 4 11.2 27.2 1.6
265 4 12.8 25.6 0.0
266 4 14.4 27.2 1.6
267 2 16.0 25.6 0.0
268 4 17.6 27.2 1.6
269 3 19.2 25.6 0.0
270 4 20.8 27.2 1.6
271 3 22.4 25.6 0.0
272 1 24.0 27.2 1.6
273 2 25.6 25.6 0.0
274 4 27.2 27.2 1.6
275 4 28.8 25.6 0.0
276 2 30.4 27.2 1.6
277 1 32.0 25.6 0.0
278 3 33.6 27.2 1.6
279 4 35.2 25.6 0.0
280 2 36.8 27.2 1.6
281 1 38.4 25.6 0.0
282 3 40.0 27.2 1.6
283 1 41.6 25.6 0.0
284 3 43.2 27.2 1.6
285 4 44.8 25.6 0.0
286 3 46.4 27.2 1.6
287 4 48.0 25.6 0.0
288 3 49.6 27.2 1.6
289 4 0.0 28.8 0.0
290 4 1.6 30.4 1.6
291 4 3.2 28.8 0.0
292 2 4.8 30.4 1.6
293 4 6.4 28.8 0.0
294 4 8.0 30.4 1.6
295 3 9.6 28.8 0.0
296 4 11.2 30.4 1.6
297 2 12.8 28.8 0.0
298 4 14.4 30.4 1.6
299 4 16.0 28.8 0.0
300 4 17.6 30.4 1.6
301 3 19.2 28.8 0.0
302 4 20.8 30.4 1.6
303 4 22.4 28.8 0.0
304 1 24.0 30.4 1.6
305 4 25.6 28.8 0.0
306 1 27.2 30.4 1.6
307 1 28.8 28.8 0.0
308 3 30.4 30.4 1.6
309 1 32.0 28.8 0.0
310 2 33.6 30.4 1.6
311 4 35.2 28.8 0.0
312 4 36.8 30.4 1.6
313 4 38.4 28.8 0.0
314 4 40.0 30.4 1.6
315 1 41.6 28.8 0.0
316 3 43.2 30.4 1.6
317 4 44.8 28.8 0.0
318 3 46.4 30.4 1.6
319 4 48.0 28.8 0.0
320 3 49.6 30.4 1.6
321 4 0.0 32.0 0.0
322 4 1.6 33.6 1.6
323 3 3.2 32.0 0.0
324 4 4.8 33.6 1.6
325 2 6.4 32.0 0.0
326 2 8.0 33.6 1.6
327 4 9.6 32.0 0.0
328 4 11.2 33.6 1.6
329 4 12.8 32.0 0.0
330 2 14.4 33.6 1.6
331 4 16.0 32.0 0.0
332 4 17.6 33.6 1.6
333 3 19.2 32.0 0.0
334 4 20.8 33.6 1.6
335 3 22.4 32.0 0.0
336 4 24.0 33.6 1.6
337 3 25.6 32.0 0.0
338 4 27.2 33.6 1.6
339 4 28.8 32.0 0.0
340 3 30.4 33.6 1.6
341 1 32.0 32.0 0.0
342 2 33.6 33.6 1.6
343 4 35.2 32.0 0.0
344 3 36.8 33.6 1.6
345 1 38.4 32.0 0.0
346 4 40.0 33.6 1.6
347 1 41.6 32.0 0.0
348 4 43.2 33.6 1.6
349 4 44.8 32.0 0.0
350 3 46.4 33.6 1.6
351 4 48.0 32.0 0.0
352 3 49.6 33.6 1.6
353 4 0.0 35.2 0.0
354 4 1.6 36.8 1.6
355 4 3.2 35.2 0.0
356 2 4.8 36.8 1.6
357 4 6.4 35.2 0.0
358 4 8.0 36.8 1.6
359 4 9.6 35.2 0.0
360 3 11.2 36.8 1.6
361 1 12.8 35.2 0.0
362 2 14.4 36.8 1.6
363 4 16.0 35.2 0.0
364 4 17.6 36.8 1.6
365 4 19.2 35.2 0.0
366 2 20.8 36.8 1.6
367 4 22.4 35.2 0.0
368 4 24.0 36.8 1.6
369 4 25.6 35.2 0.0
370 3 27.2 36.8 1.6
371 4 28.8 35.2 0.0
372 4 30.4 36.8 1.6
373 4 32.0 35.2 0.0
374 1 33.6 36.8 1.6
375 1 35.2 35.2 0.0
376 4 36.8 36.8 1.6
377 1 38.4 35.2 0.0
378 4 40.0 36.8 1.6
379 4 41.6 35.2 0.0
380 4 43.2 36.8 1.6
381 1 44.8 35.2 0.0
382 3 46.4 36.8 1.6
383 1 48.0 35.2 0.0
384 3 49.6 36.8 1.6
385 4 0.0 38.4 0.0
386 3 1.6 40.0 1.6
387 4 3.2 38.4 0.0
388 4 4.8 40.0 1.6
389 4 6.4 38.4 0.0
390 3 8.0 40.0 1.6
391 4 9.6 38.4 0.0
392 3 11.2 40.0 1.6
393 1 12.8 38.4 0.0
394 3 14.4 40.0 1.6
395 4 16.0 38.4 0.0
396 3 17.6 40.0 1.6
397 1 19.2 38.4 0.0
398 3 20.8 40.0 1.6
399 1 22.4 38.4 0.0
400 3 24.0 40.0 1.6
401 4 25.6 38.4 0.0
402 4 27.2 40.0 1.6
403 1 28.8 38.4 0.0
404 4 30.4 40.0 1.6
405 4 32.0 38.4 0.0
406 1 33.6 40.0 1.6
407 4 35.2 38.4 0.0
408 4 36.8 40.0 1.6
409 4 38.4 38.4 0.0
410 1 40.0 40.0 1.6
411 2 41.6 38.4 0.0
412 4 43.2 40.0 1.6
413 4 44.8 38.4 0.0
414 4 46.4 40.0 1.6
415 1 48.0 38.4 0.0
416 3 49.6 40.0 1.6
417 1 0.0 41.6 0.0
418 2 1.6 43.2 1.6
419 4 3.2 41.6 0.0
420 3 4.8 43.2 1.6
421 1 6.4 41.6 0.0
422 4 8.0 43.2 1.6
423 1 9.6 41.6 0.0
424 3 11.2 43.2 1.6
425 1 12.8 41.6 0.0
426 3 14.4 43.2 1.6
427 1 16.0 41.6 0.0
428 3 17.6 43.2 1.6
429 1 19.2 41.6 0.0
430 3 20.8 43.2 1.6
431 1 22.4 41.6 0.0
432 3 24.0 43.2 1.6
433 4 25.6 41.6 0.0
434 4 27.2 43.2 1.6
435 4 28.8 41.6 0.0
436 4 30.4 43.2 1.6
437 3 32.0 41.6 0.0
438 1 33.6 43.2 1.6
439 4 35.2 41.6 0.0
440 1 36.8 43.2 1.6
441 3 38.4 41.6 0.0
442 4 40.0 43.2 1.6
443 4 41.6 41.6 0.0
444 3 43.2 43.2 1.6
445 4 44.8 41.6 0.0
446 4 46.4 43.2 1.6
447 1 48.0 41.6 0.0
448 3 49.6 43.2 1.6
449 1 0.0 44.8 0.0
450 4 1.6 46.4 1.6
451 1 3.2 44.8 0.0
452 3 4.8 46.4 1.6
453 4 6.4 44.8 0.0
454 3 8.0 46.4 1.6
455 4 9.6 44.8 0.0
456 3 11.2 46.4 1.6
457 1 12.8 44.8 0.0
458 4 14.4 46.4 1.6
459 1 16.0 44.8 0.0
460 2 17.6 46.4 1.6
461 1 19.2 44.8 0.0
462 3 20.8 46.4 1.6
463 1 22.4 44.8 0.0
464 3 24.0 46.4 1.6
465 4 25.6 44.8 0.0
466 4 27.2 46.4 1.6
467 2 28.8 44.8 0.0
468 1 30.4 46.4 1.6
469 4 32.0 44.8 0.0
470 4 33.6 46.4 1.6
471 2 35.2 44.8 0.0
472 1 36.8 46.4 1.6
473 3 38.4 44.8 0.0
474 4 40.0 46.4 1.6
475 4 41.6 44.8 0.0
476 3 43.2 46.4 1.6
477 4 44.8 44.8 0.0
478 4 46.4 46.4 1.6
479 1 48.0 44.8 0.0
480 2 49.6 46.4 1.6
481 1 0.0 48.0 0.0
482 3 1.6 49.6 1.6
483 4 3.2 48.0 0.0
484 3 4.8 49.6 1.6
485 1 6.4 48.0 0.0
486 3 8.0 49.6 1.6
487 1 9.6 48.0 0.0
488 3 11.2 49.6 1.6
489 1 12.8 48.0 0.0
490 4 14.4 49.6 1.6
491 4 16.0 48.0 0.0
492 3 17.6 49.6 1.6
493 1 19.2 48.0 0.0
494 4 20.8 49.6 1.6
495 1 22.4 48.0 0.0
496 3 24.0 49.6 1.6
497 4 25.6 48.0 0.0
498 2 27.2 49.6 1.6
499 4 28.8 48.0 0.0
500 4 30.4 49.6 1.6
501 3 32.0 48.0 0.0
502 4 33.6 49.6 1.6
503 4 35.2 48.0 0.0
504 2 36.8 49.6 1.6
505 3 38.4 48.0 0.0
506 4 40.0 49.6 1.6
507 3 41.6 48.0 0.0
508 2 43.2 49.6 1.6
509 4 44.8 48.0 0.0
510 3 46.4 49.6 1.6
511 4 48.0 48.0 0.0
512 2 49.6 49.6 1.6
513 4 0.0 0.0 3.2
514 4 1.6 1.6 4.8
515 1 3.2 0.0 3.2
516 3 4.8 1.6 4.8
517 1 6.4 0.0 3.2
518 3 8.0 1.6 4.8
519 1 9.6 0.0 3.2
520 4 11.2 1.6 4.8
521 4 12.8 0.0 3.2
522 4 14.4 1.6 4.8
523 1 16.0 0.0 3.2
524 3 17.6 1.6 4.8
525 1 19.2 0.0 3.2
526 3 20.8 1.6 4.8
527 1 22.4 0.0 3.2
528 2 24.0 1.6 4.8
529 4 25.6 0.0 3.2
530 4 27.2 1.6 4.8
531 4 28.8 0.0 3.2
532 4 30.4 1.6 4.8
533 4 32.0 0.0 3.2
534 4 33.6 1.6 4.8
535 4 35.2 0.0 3.2
536 3 36.8 1.6 4.8
537 4 38.4 0.0 3.2
538 3 40.0 1.6 4.8
539 4 41.6 0.0 3.2
540 3 43.2 1.6 4.8
541 1 44.8 0.0 3.2
542 4 46.4 1.6 4.8
543 1 48.0 0.0 3.2
544 2 49.6 1.6 4.8
545 4 0.0 3.2 3.2
546 3 1.6 4.8 4.8
547 1 3.2 3.2 3.2
548 2 4.8 4.8 4.8
549 1 6.4 3.2 3.2
550 3 8.0 4.8 4.8
551 1 9.6 3.2 3.2
552 3 11.2 4.8 4.8
553 1 12.8 3.2 3.2
554 3 14.4 4.8 4.8
555 1 16.0 3.2 3.2
556 3 17.6 4.8 4.8
557 1 19.2 3.2 3.2
558 3 20.8 4.8 4.8
559 1 22.4 3.2 3.2
560 3 24.0 4.8 4.8
561 4 25.6 3.2 3.2
562 3 27.2 4.8 4.8
563 4 28.8 3.2 3.2
564 3 30.4 4.8 4.8
565 4 32.0 3.2 3.2
566 3 33.6 4.8 4.8
567 4 35.2 3.2 3.2
568 4 36.8 4.8 4.8
569 4 38.4 3.2 3.2
570 3 40.0 4.8 4.8
571 4 41.6 3.2 3.2
572 3 43.2 4.8 4.8
573 4 44.8 3.2 3.2
574 4 46.4 4.8 4.8
575 1 48.0 3.2 3.2
576 3 49.6 4.8 4.8
577 4 0.0 6.4 3.2
578 2 1.6 8.0 4.8
579 1 3.2 6.4 3.2
580 2 4.8 8.0 4.8
581 1 6.4 6.4 3.2
582 2 8.0 8.0 4.8
583 1 9.6 6.4 3.2
584 4 11.2 8.0 4.8
585 1 12.8 6.4 3.2
586 2 14.4 8.0 4.8
587 1 16.0 6.4 3.2
588 3 17.6 8.0 4.8
589 1 19.2 6.4 3.2
590 3 20.8 8.0 4.8
591 1 22.4 6.4 3.2
592 4 24.0 8.0 4.8
593 4 25.6 6.4 3.2
594 2 27.2 8.0 4.8
595 1 28.8 6.4 3.2
596 4 30.4 8.0 4.8
597 4 32.0 6.4 3.2
598 4 33.6 8.0 4.8
599 4 35.2 6.4 3.2
600 2 36.8 8.0 4.8
601 4 38.4 6.4 3.2
602 3 40.0 8.0 4.8
603 1 41.6 6.4 3.2
604 3 43.2 8.0 4.8
605 4 44.8 6.4 3.2
606 3 46.4 8.0 4.8
607 4 48.0 6.4 3.2
608 3 49.6 8.0 4.8
609 4 0.0 9.6 3.2
610 4 1.6 11.2 4.8
611 4 3.2 9.6 3.2
612 3 4.8 11.2 4.8
613 1 6.4 9.6 3.2
614 3 8.0 11.2 4.8
615 1 9.6 9.6 3.2
616 3 11.2 11.2 4.8
617 1 12.8 9.6 3.2
618 3 14.4 11.2 4.8
619 1 16.0 9.6 3.2
620 3 17.6 11.2 4.8
621 1 19.2 9.6 3.2
622 2 20.8 11.2 4.8
623 4 22.4 9.6 3.2
624 3 24.0 11.2 4.8
625 4 25.6 9.6 3.2
626 3 27.2 11.2 4.8
627 4 28.8 9.6 3.2
628 3 30.4 11.2 4.8
629 4 32.0 9.6 3.2
630 3 33.6 11.2 4.8
631 4 35.2 9.6 3.2
632 3 36.8 11.2 4.8
633 1 38.4 9.6 3.2
634 3 40.0 11.2 4.8
635 1 41.6 9.6 3.2
636 3 43.2 11.2 4.8
637 1 44.8 9.6 3.2
638 3 46.4 11.2 4.8
639 4 48.0 9.6 3.2
640 2 49.6 11.2 4.8
641 4 0.0 12.8 3.2
642 3 1.6 14.4 4.8
643 1 3.2 12.8 3.2
644 3 4.8 14.4 4.8
645 1 6.4 12.8 3.2
646 3 8.0 14.4 4.8
647 4 9.6 12.8 3.2
648 3 11.2 14.4 4.8
649 1 12.8 12.8 3.2
650 3 14.4 14.4 4.8
651 1 16.0 12.8 3.2
652 2 17.6 14.4 4.8
653 1 19.2 12.8 3.2
654 4 20.8 14.4 4.8
655 4 22.4 12.8 3.2
656 3 24.0 14.4 4.8
657 4 25.6 12.8 3.2
658 2 27.2 14.4 4.8
659 1 28.8 12.8 3.2
660 3 30.4 14.4 4.8
661 1 32.0 12.8 3.2
662 3 33.6 14.4 4.8
663 1 35.2 12.8 3.2
664 3 36.8 14.4 4.8
665 1 38.4 12.8 3.2
666 2 40.0 14.4 4.8
667 4 41.6 12.8 3.2
668 4 43.2 14.4 4.8
669 4 44.8 12.8 3.2
670 3 46.4 14.4 4.8
671 1 48.0 12.8 3.2
672 4 49.6 14.4 4.8
673 4 0.0 16.0 3.2
674 4 1.6 17.6 4.8
675 1 3.2 16.0 3.2
676 2 4.8 17.6 4.8
677 1 6.4 16.0 3.2
678 3 8.0 17.6 4.8
679 4 9.6 16.0 3.2
680 3 11.2 17.6 4.8
681 1 12.8 16.0 3.2
682 3 14.4 17.6 4.8
683 1 16.0 16.0 3.2
684 3 17.6 17.6 4.8
685 1 19.2 16.0 3.2
686 3 20.8 17.6 4.8
687 4 22.4 16.0 3.2
688 3 24.0 17.6 4.8
689 1 25.6 16.0 3.2
690 4 27.2 17.6 4.8
691 4 28.8 16.0 3.2
692 3 30.4 17.6 4.8
693 1 32.0 16.0 3.2
694 3 33.6 17.6 4.8
695 1 35.2 16.0 3.2
696 3 36.8 17.6 4.8
697 1 38.4 16.0 3.2
698 4 40.0 17.6 4.8
699 4 41.6 16.0 3.2
700 3 43.2 17.6 4.8
701 4 44.8 16.0 3.2
702 3 46.4 17.6 4.8
703 1 48.0 16.0 3.2
704 2 49.6 17.6 4.8
705 1 0.0 19.2 3.2
706 3 1.6 20.8 4.8
707 1 3.2 19.2 3.2
708 3 4.8 20.8 4.8
709 1 6.4 19.2 3.2
710 3 8.0 20.8 4.8
711 4 9.6 19.2 3.2
712 2 11.2 20.8 4.8
713 1 12.8 19.2 3.2
714 4 14.4 20.8 4.8
715 4 16.0 19.2 3.2
716 2 17.6 20.8 4.8
717 4 19.2 19.2 3.2
718 3 20.8 20.8 4.8
719 1 22.4 19.2 3.2
720 3 24.0 20.8 4.8
721 4 25.6 19.2 3.2
722 4 27.2 20.8 4.8
723 1 28.8 19.2 3.2
724 3 30.4 20.8 4.8
725 1 32.0 19.2 3.2
726 3 33.6 20.8 4.8
727 1 35.2 19.2 3.2
728 3 36.8 20.8 4.8
729 1 38.4 19.2 3.2
730 3 40.0 20.8 4.8
731 1 41.6 19.2 3.2
732 3 43.2 20.8 4.8
733 1 44.8 19.2 3.2
734 3 46.4 20.8 4.8
735 4 48.0 19.2 3.2
736 3 49.6 20.8 4.8
737 1 0.0 22.4 3.2
738 3 1.6 24.0 4.8
739 1 3.2 22.4 3.2
740 3 4.8 24.0 4.8
741 4 6.4 22.4 3.2
742 4 8.0 24.0 4.8
743 4 9.6 22.4 3.2
744 3 11.2 24.0 4.8
745 4 12.8 22.4 3.2
746 4 14.4 24.0 4.8
747 4 16.0 22.4 3.2
748 1 17.6 24.0 4.8
749 4 19.2 22.4 3.2
750 4 20.8 24.0 4.8
751 4 22.4 22.4 3.2
752 1 24.0 24.0 4.8
753 4 25.6 22.4 3.2
754 3 27.2 24.0 4.8
755 4 28.8 22.4 3.2
756 3 30.4 24.0 4.8
757 1 32.0 22.4 3.2
758 3 33.6 24.0 4.8
759 1 35.2 22.4 3.2
760 2 36.8 24.0 4.8
761 1 38.4 22.4 3.2
762 2 40.0 24.0 4.8
763 1 41.6 22.4 3.2
764 4 43.2 24.0 4.8
765 1 44.8 22.4 3.2
766 4 46.4 24.0 4.8
767 4 48.0 22.4 3.2
768 3 49.6 24.0 4.8
769 4 0.0 25.6 3.2
770 4 1.6 27.2 4.8
771 4 3.2 25.6 3.2
772 3 4.8 27.2 4.8
773 4 6.4 25.6 3.2
774 4 8.0 27.2 4.8
775 2 9.6 25.6 3.2
776 4 11.2 27.2 4.8
777 4 12.8 25.6 3.2
778 4 14.4 27.2 4.8
779 2 16.0 25.6 3.2
780 1 17.6 27.2 4.8
781 3 19.2 25.6 3.2
782 1 20.8 27.2 4.8
783 2 22.4 25.6 3.2
784 1 24.0 27.2 4.8
785 2 25.6 25.6 3.2
786 4 27.2 27.2 4.8
787 4 28.8 25.6 3.2
788 4 30.4 27.2 4.8
789 4 32.0 25.6 3.2
790 3 33.6 27.2 4.8
791 1 35.2 25.6 3.2
792 4 36.8 27.2 4.8
793 1 38.4 25.6 3.2
794 4 40.0 27.2 4.8
795 4 41.6 25.6 3.2
796 2 43.2 27.2 4.8
797 4 44.8 25.6 3.2
798 3 46.4 27.2 4.8
799 1 48.0 25.6 3.2
800 3 49.6 27.2 4.8
801 4 0.0 28.8 3.2
802 4 1.6 30.4 4.8
803 4 3.2 28.8 3.2
804 4 4.8 30.4 4.8
805 1 6.4 28.8 3.2
806 3 8.0 30.4 4.8
807 4 9.6 28.8 3.2
808 4 11.2 30.4 4.8
809 4 12.8 28.8 3.2
810 1 14.4 30.4 4.8
811 3 16.0 28.8 3.2
812 4 17.6 30.4 4.8
813 4 19.2 28.8 3.2
814 1 20.8 30.4 4.8
815 3 22.4 28.8 3.2
816 1 24.0 30.4 4.8
817 3 25.6 28.8 3.2
818 1 27.2 30.4 4.8
819 4 28.8 28.8 3.2
820 2 30.4 30.4 4.8
821 1 32.0 28.8 3.2
822 2 33.6 30.4 4.8
823 4 35.2 28.8 3.2
824 3 36.8 30.4 4.8
825 4 38.4 28.8 3.2
826 3 40.0 30.4 4.8
827 1 41.6 28.8 3.2
828 3 43.2 30.4 4.8
829 1 44.8 28.8 3.2
830 3 46.4 30.4 4.8
831 1 48.0 28.8 3.2
832 2 49.6 30.4 4.8
833 4 0.0 32.0 3.2
834 3 1.6 33.6 4.8
835 4 3.2 32.0 3.2
836 2 4.8 33.6 4.8
837 4 6.4 32.0 3.2
838 4 8.0 33.6 4.8
839 4 9.6 32.0 3.2
840 3 11.2 33.6 4.8
841 2 12.8 32.0 3.2
842 4 14.4 33.6 4.8
843 4 16.0 32.0 3.2
844 3 17.6 33.6 4.8
845 4 19.2 32.0 3.2
846 2 20.8 33.6 4.8
847 3 22.4 32.0 3.2
848 4 24.0 33.6 4.8
849 3 25.6 32.0 3.2
850 4 27.2 33.6 4.8
851 1 28.8 32.0 3.2
852 2 30.4 33.6 4.8
853 4 32.0 32.0 3.2
854 4 33.6 33.6 4.8
855 4 35.2 32.0 3.2
856 2 36.8 33.6 4.8
857 4 38.4 32.0 3.2
858 4 40.0 33.6 4.8
859 4 41.6 32.0 3.2
860 3 43.2 33.6 4.8
861 4 44.8 32.0 3.2
862 2 46.4 33.6 4.8
863 1 48.0 32.0 3.2
864 4 49.6 33.6 4.8
865 1 0.0 35.2 3.2
866 3 1.6 36.8 4.8
867 1 3.2 35.2 3.2
868 2 4.8 36.8 4.8
869 1 6.4 35.2 3.2
870 2 8.0 36.8 4.8
871 1 9.6 35.2 3.2
872 3 11.2 36.8 4.8
873 1 12.8 35.2 3.2
874 3 14.4 36.8 4.8
875 1 16.0 35.2 3.2
876 3 17.6 36.8 4.8
877 1 19.2 35.2 3.2
878 3 20.8 36.8 4.8
879 1 22.4 35.2 3.2
880 4 24.0 36.8 4.8
881 4 25.6 35.2 3.2
882 2 27.2 36.8 4.8
883 1 28.8 35.2 3.2
884 1 30.4 36.8 4.8
885 4 32.0 35.2 3.2
886 4 33.6 36.8 4.8
887 4 35.2 35.2 3.2
888 4 36.8 36.8 4.8
889 4 38.4 35.2 3.2
890 4 40.0 36.8 4.8
891 2 41.6 35.2 3.2
892 4 43.2 36.8 4.8
893 4 44.8 35.2 3.2
894 4 46.4 36.8 4.8
895 4 48.0 35.2 3.2
896 3 49.6 36.8 4.8
897 1 0.0 38.4 3.2
898 3 1.6 40.0 4.8
899 1 3.2 38.4 3.2
900 4 4.8 40.0 4.8
901 1 6.4 38.4 3.2
902 3 8.0 40.0 4.8
903 1 9.6 38.4 3.2
904 2 11.2 40.0 4.8
905 1 12.8 38.4 3.2
906 2 14.4 40.0 4.8
907 4 16.0 38.4 3.2
908 4 17.6 40.0 4.8
909 1 19.2 38.4 3.2
910 4 20.8 40.0 4.8
911 1 22.4 38.4 3.2
912 4 24.0 40.0 4.8
913 1 25.6 38.4 3.2
914 4 27.2 40.0 4.8
915 4 28.8 38.4 3.2
916 1 30.4 40.0 4.8
917 2 32.0 38.4 3.2
918 1 33.6 40.0 4.8
919 3 35.2 38.4 3.2
920 1 36.8 40.0 4.8
921 3 38.4 38.4 3.2
922 4 40.0 40.0 4.8
923 3 41.6 38.4 3.2
924 4 43.2 40.0 4.8
925 4 44.8 38.4 3.2
926 2 46.4 40.0 4.8
927 4 48.0 38.4 3.2
928 3 49.6 40.0 4.8
929 1 0.0 41.6 3.2
930 3 1.6 43.2 4.8
931 1 3.2 41.6 3.2
932 3 4.8 43.2 4.8
933 1 6.4 41.6 3.2
934 3 8.0 43.2 4.8
935 1 9.6 41.6 3.2
936 3 11.2 43.2 4.8
937 1 12.8 41.6 3.2
938 3 14.4 43.2 4.8
939 1 16.0 41.6 3.2
940 2 17.6 43.2 4.8
941 4 19.2 41.6 3.2
942 2 20.8 43.2 4.8
943 4 22.4 41.6 3.2
944 4 24.0 43.2 4.8
945 1 25.6 41.6 3.2
946 4 27.2 43.2 4.8
947 2 28.8 41.6 3.2
948 1 30.4 43.2 4.8
949 3 32.0 41.6 3.2
950 1 33.6 43.2 4.8
951 4 35.2 41.6 3.2
952 1 36.8 43.2 4.8
953 3 38.4 41.6 3.2
954 4 40.0 43.2 4.8
955 2 41.6 41.6 3.2
956 4 43.2 43.2 4.8
957 4 44.8 41.6 3.2
958 2 46.4 43.2 4.8
959 1 48.0 41.6 3.2
960 4 49.6 43.2 4.8
961 1 0.0 44.8 3.2
962 3 1.6 46.4 4.8
963 1 3.2 44.8 3.2
964 3 4.8 46.4 4.8
965 1 6.4 44.8 3.2
966 3 8.0 46.4 4.8
967 1 9.6 44.8 3.2
968 3 11.2 46.4 4.8
969 1 12.8 44.8 3.2
970 3 14.4 46.4 4.8
971 1 16.0 44.8 3.2
972 4 17.6 46.4 4.8
973 1 19.2 44.8 3.2
974 3 20.8 46.4 4.8
975 1 22.4 44.8 3.2
976 3 24.0 46.4 4.8
977 4 25.6 44.8 3.2
978 1 27.2 46.4 4.8
979 3 28.8 44.8 3.2
980 1 30.4 46.4 4.8
981 3 32.0 44.8 3.2
982 1 33.6 46.4 4.8
983 3 35.2 44.8 3.2
984 1 36.8 46.4 4.8
985 3 38.4 44.8 3.2
986 4 40.0 46.4 4.8
987 4 41.6 44.8 3.2
988 4 43.2 46.4 4.8
989 4 44.8 44.8 3.2
990 3 46.4 46.4 4.8
991 4 48.0 44.8 3.2
992 3 49.6 46.4 4.8
993 1 0.0 48.0 3.2
994 3 1.6 49.6 4.8
995 1 3.2 48.0 3.2
996 3 4.8 49.6 4.8
997 4 6.4 48.0 3.2
998 4 8.0 49.6 4.8
999 1 9.6 48.0 3.2
1000 3 11.2 49.6 4.8
1001 1 12.8 48.0 3.2
1002 3 14.4 49.6 4.8
1003 4 16.0 48.0 3.2
1004 3 17.6 49.6 4.8
1005 1 19.2 48.0 3.2
1006 3 20.8 49.6 4.8
1007 1 22.4 48.0 3.2
1008 4 24.0 49.6 4.8
1009 4 25.6 48.0 3.2
1010 4 27.2 49.6 4.8
1011 3 28.8 48.0 3.2
1012 1 30.4 49.6 4.8
1013 2 32.0 48.0 3.2
1014 4 33.6 49.6 4.8
1015 4 35.2 48.0 3.2
1016 4 36.8 49.6 4.8
1017 4 38.4 48.0 3.2
1018 4 40.0 49.6 4.8
1019 4 41.6 48.0 3.2
1020 4 43.2 49.6 4.8
1021 4 44.8 48.0 3.2
1022 3 46.4 49.6 4.8
1023 4 48.0 48.0 3.2
1024 4 49.6 49.6 4.8
1025 1 0.0 0.0 6.4
1026 3 1.6 1.6 8.0
1027 1 3.2 0.0 6.4
1028 3 4.8 1.6 8.0
1029 1 6.4 0.0 6.4
1030 3 8.0 1.6 8.0
1031 1 9.6 0.0 6.4
1032 3 11.2 1.6 8.0
1033 1 12.8 0.0 6.4
1034 3 14.4 1.6 8.0
1035 1 16.0 0.0 6.4
1036 3 17.6 1.6 8.0
1037 1 19.2 0.0 6.4
1038 3 20.8 1.6 8.0
1039 4 22.4 0.0 6.4
1040 3 24.0 1.6 8.0
1041 4 25.6 0.0 6.4
1042 2 27.2 1.6 8.0
1043 3 28.8 0.0 6.4
1044 4 30.4 1.6 8.0
1045 3 32.0 0.0 6.4
1046 4 33.6 1.6 8.0
1047 1 35.2 0.0 6.4
1048 4 36.8 1.6 8.0
1049 4 38.4 0.0 6.4
1050 4 40.0 1.6 8.0
1051 4 41.6 0.0 6.4
1052 3 43.2 1.6 8.0
1053 4 44.8 0.0 6.4
1054 3 46.4 1.6 8.0
1055 1 48.0 0.0 6.4
1056 3 49.6 1.6 8.0
1057 4 0.0 3.2 6.4
1058 4 1.6 4.8 8.0
1059 1 3.2 3.2 6.4
1060 4 4.8 4.8 8.0
1061 4 6.4 3.2 6.4
1062 3 8.0 4.8 8.0
1063 1 9.6 3.2 6.4
1064 3 11.2 4.8 8.0
1065 1 12.8 3.2 6.4
1066 4 14.4 4.8 8.0
1067 1 16.0 3.2 6.4
1068 3 17.6 4.8 8.0
1069 1 19.2 3.2 6.4
1070 3 20.8 4.8 8.0
1071 1 22.4 3.2 6.4
1072 3 24.0 4.8 8.0
1073 4 25.6 3.2 6.4
1074 3 27.2 4.8 8.0
1075 4 28.8 3.2 6.4
1076 4 30.4 4.8 8.0
1077 4 32.0 3.2 6.4
1078 4 33.6 4.8 8.0
1079 1 35.2 3.2 6.4
1080 4 36.8 4.8 8.0
1081 4 38.4 3.2 6.4
1082 2 40.0 4.8 8.0
1083 1 41.6 3.2 6.4
1084 3 43.2 4.8 8.0
1085 4 44.8 3.2 6.4
1086 3 46.4 4.8 8.0
1087 1 48.0 3.2 6.4
1088 4 49.6 4.8 8.0
1089 4 0.0 6.4 6.4
1090 4 1.6 8.0 8.0
1091 1 3.2 6.4 6.4
1092 3 4.8 8.0 8.0
1093 1 6.4 6.4 6.4
1094 3 8.0 8.0 8.0
1095 4 9.6 6.4 6.4
1096 3 11.2 8.0 8.0
1097 4 12.8 6.4 6.4
1098 3 14.4 8.0 8.0
1099 4 16.0 6.4 6.4
1100 3 17.6 8.0 8.0
1101 1 19.2 6.4 6.4
1102 3 20.8 8.0 8.0
1103 1 22.4 6.4 6.4
1104 4 24.0 8.0 8.0
1105 1 25.6 6.4 6.4
1106 4 27.2 8.0 8.0
1107 1 28.8 6.4 6.4
1108 3 30.4 8.0 8.0
1109 4 32.0 6.4 6.4
1110 3 33.6 8.0 8.0
1111 4 35.2 6.4 6.4
1112 3 36.8 8.0 8.0
1113 4 38.4 6.4 6.4
1114 3 40.0 8.0 8.0
1115 1 41.6 6.4 6.4
1116 4 43.2 8.0 8.0
1117 1 44.8 6.4 6.4
1118 2 46.4 8.0 8.0
1119 1 48.0 6.4 6.4
1120 3 49.6 8.0 8.0
1121 1 0.0 9.6 6.4
1122 4 1.6 11.2 8.0
1123 1 3.2 9.6 6.4
1124 2 4.8 11.2 8.0
1125 1 6.4 9.6 6.4
1126 3 8.0 11.2 8.0
1127 4 9.6 9.6 6.4
1128 3 11.2 11.2 8.0
1129 1 12.8 9.6 6.4
1130 4 14.4 11.2 8.0
1131 1 16.0 9.6 6.4
1132 4 17.6 11.2 8.0
1133 1 19.2 9.6 6.4
1134 3 20.8 11.2 8.0
1135 4 22.4 9.6 6.4
1136 4 24.0 11.2 8.0
1137 4 25.6 9.6 6.4
1138 3 27.2 11.2 8.0
1139 1 28.8 9.6 6.4
1140 3 30.4 11.2 8.0
1141 1 32.0 9.6 6.4
1142 3 33.6 11.2 8.0
1143 1 35.2 9.6 6.4
1144 3 36.8 11.2 8.0
1145 1 38.4 9.6 6.4
1146 4 40.0 11.2 8.0
1147 1 41.6 9.6 6.4
1148 3 43.2 11.2 8.0
1149 1 44.8 9.6 6.4
1150 4 46.4 11.2 8.0
1151 1 48.0 9.6 6.4
1152 3 49.6 11.2 8.0
1153 1 0.0 12.8 6.4
1154 4 1.6 14.4 8.0
1155 1 3.2 12.8 6.4
1156 3 4.8 14.4 8.0
1157 1 6.4 12.8 6.4
1158 4 8.0 14.4 8.0
1159 1 9.6 12.8 6.4
1160 3 11.2 14.4 8.0
1161 1 12.8 12.8 6.4
1162 3 14.4 14.4 8.0
1163 4 16.0 12.8 6.4
1164 3 17.6 14.4 8.0
1165 1 19.2 12.8 6.4
1166 3 20.8 14.4 8.0
1167 1 22.4 12.8 6.4
1168 3 24.0 14.4 8.0
1169 1 25.6 12.8 6.4
1170 3 27.2 14.4 8.0
1171 1 28.8 12.8 6.4
1172 2 30.4 14.4 8.0
1173 1 32.0 12.8 6.4
1174 4 33.6 14.4 8.0
1175 1 35.2 12.8 6.4
1176 3 36.8 14.4 8.0
1177 1 38.4 12.8 6.4
1178 2 40.0 14.4 8.0
1179 1 41.6 12.8 6.4
1180 2 43.2 14.4 8.0
1181 1 44.8 12.8 6.4
1182 3 46.4 14.4 8.0
1183 1 48.0 12.8 6.4
1184 3 49.6 14.4 8.0
1185 1 0.0 16.0 6.4
1186 3 1.6 17.6 8.0
1187 4 3.2 16.0 6.4
1188 2 4.8 17.6 8.0
1189 1 6.4 16.0 6.4
1190 2 8.0 17.6 8.0
1191 1 9.6 16.0 6.4
1192 2 11.2 17.6 8.0
1193 1 12.8 16.0 6.4
1194 3 14.4 17.6 8.0
1195 1 16.0 16.0 6.4
1196 4 17.6 17.6 8.0
1197 1 19.2 16.0 6.4
1198 4 20.8 17.6 8.0
1199 1 22.4 16.0 6.4
1200 4 24.0 17.6 8.0
1201 1 25.6 16.0 6.4
1202 2 27.2 17.6 8.0
1203 1 28.8 16.0 6.4
1204 3 30.4 17.6 8.0
1205 1 32.0 16.0 6.4
1206 3 33.6 17.6 8.0
1207 1 35.2 16.0 6.4
1208 3 36.8 17.6 8.0
1209 1 38.4 16.0 6.4
1210 3 40.0 17.6 8.0
1211 1 41.6 16.0 6.4
1212 3 43.2 17.6 8.0
1213 1 44.8 16.0 6.4
1214 3 46.4 17.6 8.0
1215 4 48.0 16.0 6.4
1216 4 49.6 17.6 8.0
1217 1 0.0 19.2 6.4
1218 3 1.6 20.8 8.0
1219 1 3.2 19.2 6.4
1220 4 4.8 20.8 8.0
1221 1 6.4 19.2 6.4
1222 3 8.0 20.8 8.0
1223 1 9.6 19.2 6.4
1224 2 11.2 20.8 8.0
1225 1 12.8 19.2 6.4
1226 3 14.4 20.8 8.0
1227 4 16.0 19.2 6.4
1228 2 17.6 20.8 8.0
1229 4 19.2 19.2 6.4
1230 2 20.8 20.8 8.0
1231 4 22.4 19.2 6.4
1232 4 24.0 20.8 8.0
1233 4 25.6 19.2 6.4
1234 3 27.2 20.8 8.0
1235 1 28.8 19.2 6.4
1236 2 30.4 20.8 8.0
1237 1 32.0 19.2 6.4
1238 2 33.6 20.8 8.0
1239 1 35.2 19.2 6.4
1240 4 36.8 20.8 8.0
1241 4 38.4 19.2 6.4
1242 3 40.0 20.8 8.0
1243 1 41.6 19.2 6.4
1244 2 43.2 20.8 8.0
1245 1 44.8 19.2 6.4
1246 3 46.4 20.8 8.0
1247 1 48.0 19.2 6.4
1248 4 49.6 20.8 8.0
1249 1 0.0 22.4 6.4
1250 3 1.6 24.0 8.0
1251 1 3.2 22.4 6.4
1252 3 4.8 24.0 8.0
1253 1 6.4 22.4 6.4
1254 3 8.0 24.0 8.0
1255 4 9.6 22.4 6.4
1256 4 11.2 24.0 8.0
1257 1 12.8 22.4 6.4
1258 4 14.4 24.0 8.0
1259 4 16.0 22.4 6.4
1260 4 17.6 24.0 8.0
1261 4 19.2 22.4 6.4
1262 2 20.8 24.0 8.0
1263 4 22.4 22.4 6.4
1264 4 24.0 24.0 8.0
1265 1 25.6 22.4 6.4
1266 3 27.2 24.0 8.0
1267 4 28.8 22.4 6.4
1268 4 30.4 24.0 8.0
1269 4 32.0 22.4 6.4
1270 3 33.6 24.0 8.0
1271 1 35.2 22.4 6.4
1272 2 36.8 24.0 8.0
1273 1 38.4 22.4 6.4
1274 3 40.0 24.0 8.0
1275 1 41.6 22.4 6.4
1276 3 43.2 24.0 8.0
1277 4 44.8 22.4 6.4
1278 3 46.4 24.0 8.0
1279 1 48.0 22.4 6.4
1280 3 49.6 24.0 8.0
1281 4 0.0 25.6 6.4
1282 2 1.6 27.2 8.0
1283 4 3.2 25.6 6.4
1284 4 4.8 27.2 8.0
1285 1 6.4 25.6 6.4
1286 3 8.0 27.2 8.0
1287 4 9.6 25.6 6.4
1288 2 11.2 27.2 8.0
1289 2 12.8 25.6 6.4
1290 1 14.4 27.2 8.0
1291 2 16.0 25.6 6.4
1292 4 17.6 27.2 8.0
1293 2 19.2 25.6 6.4
1294 4 20.8 27.2 8.0
1295 3 22.4 25.6 6.4
1296 4 24.0 27.2 8.0
1297 4 25.6 25.6 6.4
1298 4 27.2 27.2 8.0
1299 4 28.8 25.6 6.4
1300 4 30.4 27.2 8.0
1301 1 32.0 25.6 6.4
1302 3 33.6 27.2 8.0
1303 4 35.2 25.6 6.4
1304 3 36.8 27.2 8.0
1305 4 38.4 25.6 6.4
1306 3 40.0 27.2 8.0
1307 4 41.6 25.6 6.4
1308 3 43.2 27.2 8.0
1309 4 44.8 25.6 6.4
1310 3 46.4 27.2 8.0
1311 1 48.0 25.6 6.4
1312 4 49.6 27.2 8.0
1313 1 0.0 28.8 6.4
1314 3 1.6 30.4 8.0
1315 4 3.2 28.8 6.4
1316 3 4.8 30.4 8.0
1317 4 6.4 28.8 6.4
1318 2 8.0 30.4 8.0
1319 4 9.6 28.8 6.4
1320 4 11.2 30.4 8.0
1321 3 12.8 28.8 6.4
1322 4 14.4 30.4 8.0
1323 3 16.0 28.8 6.4
1324 4 17.6 30.4 8.0
1325 2 19.2 28.8 6.4
1326 4 20.8 30.4 8.0
1327 3 22.4 28.8 6.4
1328 4 24.0 30.4 8.0
1329 3 25.6 28.8 6.4
1330 1 27.2 30.4 8.0
1331 4 28.8 28.8 6.4
1332 4 30.4 30.4 8.0
1333 4 32.0 28.8 6.4
1334 4 33.6 30.4 8.0
1335 1 35.2 28.8 6.4
1336 3 36.8 30.4 8.0
1337 1 38.4 28.8 6.4
1338 3 40.0 30.4 8.0
1339 1 41.6 28.8 6.4
1340 3 43.2 30.4 8.0
1341 1 44.8 28.8 6.4
1342 2 46.4 30.4 8.0
1343 1 48.0 28.8 6.4
1344 3 49.6 30.4 8.0
1345 1 0.0 32.0 6.4
1346 4 1.6 33.6 8.0
1347 4 3.2 32.0 6.4
1348 3 4.8 33.6 8.0
1349 4 6.4 32.0 6.4
1350 4 8.0 33.6 8.0
1351 4 9.6 32.0 6.4
1352 3 11.2 33.6 8.0
1353 4 12.8 32.0 6.4
1354 4 14.4 33.6 8.0
1355 2 16.0 32.0 6.4
1356 4 17.6 33.6 8.0
1357 4 19.2 32.0 6.4
1358 4 20.8 33.6 8.0
1359 4 22.4 32.0 6.4
1360 1 24.0 33.6 8.0
1361 3 25.6 32.0 6.4
1362 4 27.2 33.6 8.0
1363 4 28.8 32.0 6.4
1364 4 30.4 33.6 8.0
1365 4 32.0 32.0 6.4
1366 4 33.6 33.6 8.0
1367 4 35.2 32.0 6.4
1368 4 36.8 33.6 8.0
1369 4 38.4 32.0 6.4
1370 3 40.0 33.6 8.0
1371 1 41.6 32.0 6.4
1372 3 43.2 33.6 8.0
1373 1 44.8 32.0 6.4
1374 3 46.4 33.6 8.0
1375 1 48.0 32.0 6.4
1376 4 49.6 33.6 8.0
1377 4 0.0 35.2 6.4
1378 3 1.6 36.8 8.0
1379 1 3.2 35.2 6.4
1380 3 4.8 36.8 8.0
1381 4 6.4 35.2 6.4
1382 4 8.0 36.8 8.0
1383 4 9.6 35.2 6.4
1384 3 11.2 36.8 8.0
1385 4 12.8 35.2 6.4
1386 4 14.4 36.8 8.0
1387 1 16.0 35.2 6.4
1388 3 17.6 36.8 8.0
1389 1 19.2 35.2 6.4
1390 3 20.8 36.8 8.0
1391 4 22.4 35.2 6.4
1392 4 24.0 36.8 8.0
1393 4 25.6 35.2 6.4
1394 1 27.2 36.8 8.0
1395 2 28.8 35.2 6.4
1396 4 30.4 36.8 8.0
1397 4 32.0 35.2 6.4
1398 4 33.6 36.8 8.0
1399 2 35.2 35.2 6.4
1400 1 36.8 36.8 8.0
1401 4 38.4 35.2 6.4
1402 4 40.0 36.8 8.0
1403 4 41.6 35.2 6.4
1404 3 43.2 36.8 8.0
1405 1 44.8 35.2 6.4
1406 3 46.4 36.8 8.0
1407 4 48.0 35.2 6.4
1408 3 49.6 36.8 8.0
1409 1 0.0 38.4 6.4
1410 4 1.6 40.0 8.0
1411 4 3.2 38.4 6.4
1412 2 4.8 40.0 8.0
1413 4 6.4 38.4 6.4
1414 3 8.0 40.0 8.0
1415 4 9.6 38.4 6.4
1416 4 11.2 40.0 8.0
1417 4 12.8 38.4 6.4
1418 3 14.4 40.0 8.0
1419 1 16.0 38.4 6.4
1420 3 17.6 40.0 8.0
1421 4 19.2 38.4 6.4
1422 2 20.8 40.0 8.0
1423 4 22.4 38.4 6.4
1424 4 24.0 40.0 8.0
1425 3 25.6 38.4 6.4
1426 4 27.2 40.0 8.0
1427 3 28.8 38.4 6.4
1428 1 30.4 40.0 8.0
1429 4 32.0 38.4 6.4
1430 4 33.6 40.0 8.0
1431 3 35.2 38.4 6.4
1432 4 36.8 40.0 8.0
1433 3 38.4 38.4 6.4
1434 4 40.0 40.0 8.0
1435 4 41.6 38.4 6.4
1436 3 43.2 40.0 8.0
1437 1 44.8 38.4 6.4
1438 3 46.4 40.0 8.0
1439 1 48.0 38.4 6.4
1440 3 49.6 40.0 8.0
1441 1 0.0 41.6 6.4
1442 3 1.6 43.2 8.0
1443 1 3.2 41.6 6.4
1444 3 4.8 43.2 8.0
1445 1 6.4 41.6 6.4
1446 3 8.0 43.2 8.0
1447 1 9.6 41.6 6.4
1448 3 11.2 43.2 8.0
1449 1 12.8 41.6 6.4
1450 2 14.4 43.2 8.0
1451 1 16.0 41.6 6.4
1452 3 17.6 43.2 8.0
1453 1 19.2 41.6 6.4
1454 4 20.8 43.2 8.0
1455 2 22.4 41.6 6.4
1456 2 24.0 43.2 8.0
1457 2 25.6 41.6 6.4
1458 1 27.2 43.2 8.0
1459 2 28.8 41.6 6.4
1460 4 30.4 43.2 8.0
1461 3 32.0 41.6 6.4
1462 1 33.6 43.2 8.0
1463 3 35.2 41.6 6.4
1464 4 36.8 43.2 8.0
1465 3 38.4 41.6 6.4
1466 4 40.0 43.2 8.0
1467 4 41.6 41.6 6.4
1468 4 43.2 43.2 8.0
1469 4 44.8 41.6 6.4
1470 3 46.4 43.2 8.0
1471 1 48.0 41.6 6.4
1472 3 49.6 43.2 8.0
1473 1 0.0 44.8 6.4
1474 2 1.6 46.4 8.0
1475 1 3.2 44.8 6.4
1476 4 4.8 46.4 8.0
1477 1 6.4 44.8 6.4
1478 3 8.0 46.4 8.0
1479 1 9.6 44.8 6.4
1480 3 11.2 46.4 8.0
1481 1 12.8 44.8 6.4
1482 2 14.4 46.4 8.0
1483 1 16.0 44.8 6.4
1484 3 17.6 46.4 8.0
1485 1 19.2 44.8 6.4
1486 3 20.8 46.4 8.0
1487 1 22.4 44.8 6.4
1488 4 24.0 46.4 8.0
1489 4 25.6 44.8 6.4
1490 1 27.2 46.4 8.0
1491 3 28.8 44.8 6.4
1492 4 30.4 46.4 8.0
1493 3 32.0 44.8 6.4
1494 4 33.6 46.4 8.0
1495 3 35.2 44.8 6.4
1496 4 36.8 46.4 8.0
1497 3 38.4 44.8 6.4
1498 4 40.0 46.4 8.0
1499 4 41.6 44.8 6.4
1500 4 43.2 46.4 8.0