 # Bcc Mo oriented X=[100] Y=[010] Z=[001].
  
        8192  atoms
           4  atom types
 
      0.000000000000      51.200000000000  xlo xhi
      0.000000000000      51.200000000000  ylo yhi
      0.000000000000      51.200000000000  zlo zhi
 
 
 
Atoms # atomic

1 1 0.0 0.0 0.0
2 3 1.6 1.6 1.6
3 1 3.2 0.0 0.0
4 3 4.8 1.6 1.6
5 1 6.4 0.0 0.0
6 3 8.0 1.6 1.6
7 1 9.6 0.0 0.0
8 3 11.2 1.6 1.6
9 1 12.8 0.0 0.0
10 3 14.4 1.6 1.6
11 1 16.0 0.0 0.0
12 2 17.6 1.6 1.6
13 4 19.2 0.0 0.0
14 3 20.8 1.6 1.6
15 4 22.4 0.0 0.0
16 4 24.0 1.6 1.6
17 3 25.6 0.0 0.0
18 4 27.2 1.6 1.6
19 3 28.8 0.0 0.0
20 4 30.4 1.6 1.6
21 4 32.0 0.0 0.0
22 4 33.6 1.6 1.6
23 4 35.2 0.0 0.0
24 4 36.8 1.6 1.6
25 4 38.4 0.0 0.0
26 3 40.0 1.6 1.6
27 1 41.6 0.0 0.0
28 3 43.2 1.6 1.6
29 4 44.8 0.0 0.0
30 3 46.4 1.6 1.6
31 1 48.0 0.0 0.0
32 3 49.6 1.6 1.6
33 1 0.0 3.2 0.0
34 2 1.6 4.8 1.6
35 1 3.2 3.2 0.0
36 3 4.8 4.8 1.6
37 4 6.4 3.2 0.0
38 4 8.0 4.8 1.6
39 4 9.6 3.2 0.0
40 2 11.2 4.8 1.6
41 1 12.8 3.2 0.0
42 3 14.4 4.8 1.6
43 1 16.0 3.2 0.0
44 3 17.6 4.8 1.6
45 1 19.2 3.2 0.0
46 3 20.8 4.8 1.6
47 1 22.4 3.2 0.0
48 4 24.0 4.8 1.6
49 4 25.6 3.2 0.0
50 3 27.2 4.8 1.6
51 4 28.8 3.2 0.0
52 4 30.4 4.8 1.6
53 3 32.0 3.2 0.0
54 4 33.6 4.8 1.6
55 2 35.2 3.2 0.0
56 3 36.8 4.8 1.6
57 1 38.4 3.2 0.0
58 2 40.0 4.8 1.6
59 1 41.6 3.2 0.0
60 3 43.2 4.8 1.6
61 1 44.8 3.2 0.0
62 4 46.4 4.8 1.6
63 1 48.0 3.2 0.0
64 3 49.6 4.8 1.6
65 1 0.0 6.4 0.0
66 3 1.6 8.0 1.6
67 1 3.2 6.4 0.0
68 3 4.8 8.0 1.6
69 4 6.4 6.4 0.0
70 3 8.0 8.0 1.6
71 4 9.6 6.4 0.0
72 2 11.2 8.0 1.6
73 1 12.8 6.4 0.0
74 3 14.4 8.0 1.6
75 1 16.0 6.4 0.0
76 2 17.6 8.0 1.6
77 1 19.2 6.4 0.0
78 4 20.8 8.0 1.6
79 4 22.4 6.4 0.0
80 2 24.0 8.0 1.6
81 4 25.6 6.4 0.0
82 4 27.2 8.0 1.6
83 4 28.8 6.4 0.0
84 4 30.4 8.0 1.6
85 3 32.0 6.4 0.0
86 4 33.6 8.0 1.6
87 4 35.2 6.4 0.0
88 2 36.8 8.0 1.6
89 1 38.4 6.4 0.0
90 4 40.0 8.0 1.6
91 1 41.6 6.4 0.0
92 3 43.2 8.0 1.6
93 1 44.8 6.4 0.0
94 2 46.4 8.0 1.6
95 1 48.0 6.4 0.0
96 3 49.6 8.0 1.6
97 4 0.0 9.6 0.0
98 3 1.6 11.2 1.6
99 1 3.2 9.6 0.0
100 2 4.8 11.2 1.6
101 4 6.4 9.6 0.0
102 4 8.0 11.2 1.6
103 1 9.6 9.6 0.0
104 3 11.2 11.2 1.6
105 4 12.8 9.6 0.0
106 3 14.4 11.2 1.6
107 4 16.0 9.6 0.0
108 3 17.6 11.2 1.6
109 4 19.2 9.6 0.0
110 3 20.8 11.2 1.6
111 1 22.4 9.6 0.0
112 4 24.0 11.2 1.6
113 1 25.6 9.6 0.0
114 3 27.2 11.2 1.6
115 3 28.8 9.6 0.0
116 4 30.4 11.2 1.6
117 3 32.0 9.6 0.0
118 4 33.6 11.2 1.6
119 4 35.2 9.6 0.0
120 3 36.8 11.2 1.6
121 4 38.4 9.6 0.0
122 2 40.0 11.2 1.6
123 4 41.6 9.6 0.0
124 4 43.2 11.2 1.6
125 1 44.8 9.6 0.0
126 2 46.4 11.2 1.6
127 4 48.0 9.6 0.0
128 3 49.6 11.2 1.6
129 1 0.0 12.8 0.0
130 2 1.6 14.4 1.6
131 1 3.2 12.8 0.0
132 3 4.8 14.4 1.6
133 1 6.4 12.8 0.0
134 2 8.0 14.4 1.6
135 1 9.6 12.8 0.0
136 3 11.2 14.4 1.6
137 1 12.8 12.8 0.0
138 4 14.4 14.4 1.6
139 4 16.0 12.8 0.0
140 3 17.6 14.4 1.6
141 4 19.2 12.8 0.0
142 3 20.8 14.4 1.6
143 4 22.4 12.8 0.0
144 4 24.0 14.4 1.6
145 1 25.6 12.8 0.0
146 3 27.2 14.4 1.6
147 4 28.8 12.8 0.0
148 3 30.4 14.4 1.6
149 4 32.0 12.8 0.0
150 3 33.6 14.4 1.6
151 4 35.2 12.8 0.0
152 3 36.8 14.4 1.6
153 1 38.4 12.8 0.0
154 2 40.0 14.4 1.6
155 1 41.6 12.8 0.0
156 3 43.2 14.4 1.6
157 1 44.8 12.8 0.0
158 3 46.4 14.4 1.6
159 4 48.0 12.8 0.0
160 4 49.6 14.4 1.6
161 4 0.0 16.0 0.0
162 3 1.6 17.6 1.6
163 1 3.2 16.0 0.0
164 3 4.8 17.6 1.6
165 4 6.4 16.0 0.0
166 4 8.0 17.6 1.6
167 1 9.6 16.0 0.0
168 3 11.2 17.6 1.6
169 4 12.8 16.0 0.0
170 3 14.4 17.6 1.6
171 1 16.0 16.0 0.0
172 3 17.6 17.6 1.6
173 1 19.2 16.0 0.0
174 2 20.8 17.6 1.6
175 1 22.4 16.0 0.0
176 3 24.0 17.6 1.6
177 1 25.6 16.0 0.0
178 3 27.2 17.6 1.6
179 1 28.8 16.0 0.0
180 4 30.4 17.6 1.6
181 4 32.0 16.0 0.0
182 3 33.6 17.6 1.6
183 4 35.2 16.0 0.0
184 4 36.8 17.6 1.6
185 4 38.4 16.0 0.0
186 2 40.0 17.6 1.6
187 1 41.6 16.0 0.0
188 4 43.2 17.6 1.6
189 4 44.8 16.0 0.0
190 3 46.4 17.6 1.6
191 4 48.0 16.0 0.0
192 2 49.6 17.6 1.6
193 1 0.0 19.2 0.0
194 3 1.6 20.8 1.6
195 1 3.2 19.2 0.0
196 3 4.8 20.8 1.6
197 4 6.4 19.2 0.0
198 4 8.0 20.8 1.6
199 1 9.6 19.2 0.0
200 3 11.2 20.8 1.6
201 1 12.8 19.2 0.0
202 2 14.4 20.8 1.6
203 4 16.0 19.2 0.0
204 3 17.6 20.8 1.6
205 4 19.2 19.2 0.0
206 1 20.8 20.8 1.6
207 1 22.4 19.2 0.0
208 4 24.0 20.8 1.6
209 4 25.6 19.2 0.0
210 4 27.2 20.8 1.6
211 4 28.8 19.2 0.0
212 3 30.4 20.8 1.6
213 4 32.0 19.2 0.0
214 4 33.6 20.8 1.6
215 4 35.2 19.2 0.0
216 3 36.8 20.8 1.6
217 1 38.4 19.2 0.0
218 3 40.0 20.8 1.6
219 4 41.6 19.2 0.0
220 3 43.2 20.8 1.6
221 4 44.8 19.2 0.0
222 2 46.4 20.8 1.6
223 1 48.0 19.2 0.0
224 3 49.6 20.8 1.6
225 1 0.0 22.4 0.0
226 3 1.6 24.0 1.6
227 1 3.2 22.4 0.0
228 3 4.8 24.0 1.6
229 4 6.4 22.4 0.0
230 2 8.0 24.0 1.6
231 4 9.6 22.4 0.0
232 4 11.2 24.0 1.6
233 4 12.8 22.4 0.0
234 4 14.4 24.0 1.6
235 1 16.0 22.4 0.0
236 4 17.6 24.0 1.6
237 2 19.2 22.4 0.0
238 4 20.8 24.0 1.6
239 4 22.4 22.4 0.0
240 4 24.0 24.0 1.6
241 4 25.6 22.4 0.0
242 4 27.2 24.0 1.6
243 4 28.8 22.4 0.0
244 3 30.4 24.0 1.6
245 1 32.0 22.4 0.0
246 3 33.6 24.0 1.6
247 4 35.2 22.4 0.0
248 4 36.8 24.0 1.6
249 1 38.4 22.4 0.0
250 3 40.0 24.0 1.6
251 4 41.6 22.4 0.0
252 3 43.2 24.0 1.6
253 4 44.8 22.4 0.0
254 3 46.4 24.0 1.6
255 1 48.0 22.4 0.0
256 3 49.6 24.0 1.6
257 4 0.0 25.6 0.0
258 2 1.6 27.2 1.6
259 4 3.2 25.6 0.0
260 4 4.8 27.2 1.6
261 1 6.4 25.6 0.0
262 4 8.0 27.2 1.6
263 4 9.6 25.6 0.0
264 3 11.2 27.2 1.6
265 4 12.8 25.6 0.0
266 4 14.4 27.2 1.6
267 4 16.0 25.6 0.0
268 1 17.6 27.2 1.6
269 3 19.2 25.6 0.0
270 1 20.8 27.2 1.6
271 4 22.4 25.6 0.0
272 4 24.0 27.2 1.6
273 3 25.6 25.6 0.0
274 4 27.2 27.2 1.6
275 4 28.8 25.6 0.0
276 4 30.4 27.2 1.6
277 1 32.0 25.6 0.0
278 3 33.6 27.2 1.6
279 1 35.2 25.6 0.0
280 2 36.8 27.2 1.6
281 4 38.4 25.6 0.0
282 4 40.0 27.2 1.6
283 1 41.6 25.6 0.0
284 2 43.2 27.2 1.6
285 1 44.8 25.6 0.0
286 3 46.4 27.2 1.6
287 1 48.0 25.6 0.0
288 2 49.6 27.2 1.6
289 4 0.0 28.8 0.0
290 4 1.6 30.4 1.6
291 4 3.2 28.8 0.0
292 3 4.8 30.4 1.6
293 4 6.4 28.8 0.0
294 3 8.0 30.4 1.6
295 4 9.6 28.8 0.0
296 4 11.2 30.4 1.6
297 4 12.8 28.8 0.0
298 4 14.4 30.4 1.6
299 3 16.0 28.8 0.0
300 4 17.6 30.4 1.6
301 3 19.2 28.8 0.0
302 1 20.8 30.4 1.6
303 2 22.4 28.8 0.0
304 1 24.0 30.4 1.6
305 3 25.6 28.8 0.0
306 4 27.2 30.4 1.6
307 4 28.8 28.8 0.0
308 4 30.4 30.4 1.6
309 4 32.0 28.8 0.0
310 3 33.6 30.4 1.6
311 1 35.2 28.8 0.0
312 4 36.8 30.4 1.6
313 1 38.4 28.8 0.0
314 3 40.0 30.4 1.6
315 1 41.6 28.8 0.0
316 3 43.2 30.4 1.6
317 1 44.8 28.8 0.0
318 3 46.4 30.4 1.6
319 1 48.0 28.8 0.0
320 3 49.6 30.4 1.6
321 1 0.0 32.0 0.0
322 3 1.6 33.6 1.6
323 4 3.2 32.0 0.0
324 3 4.8 33.6 1.6
325 1 6.4 32.0 0.0
326 3 8.0 33.6 1.6
327 1 9.6 32.0 0.0
328 3 11.2 33.6 1.6
329 4 12.8 32.0 0.0
330 3 14.4 33.6 1.6
331 4 16.0 32.0 0.0
332 3 17.6 33.6 1.6
333 3 19.2 32.0 0.0
334 4 20.8 33.6 1.6
335 4 22.4 32.0 0.0
336 1 24.0 33.6 1.6
337 4 25.6 32.0 0.0
338 4 27.2 33.6 1.6
339 4 28.8 32.0 0.0
340 4 30.4 33.6 1.6
341 4 32.0 32.0 0.0
342 3 33.6 33.6 1.6
343 4 35.2 32.0 0.0
344 2 36.8 33.6 1.6
345 4 38.4 32.0 0.0
346 4 40.0 33.6 1.6
347 4 41.6 32.0 0.0
348 2 43.2 33.6 1.6
349 1 44.8 32.0 0.0
350 3 46.4 33.6 1.6
351 1 48.0 32.0 0.0
352 3 49.6 33.6 1.6
353 1 0.0 35.2 0.0
354 2 1.6 36.8 1.6
355 4 3.2 35.2 0.0
356 4 4.8 36.8 1.6
357 1 6.4 35.2 0.0
358 3 8.0 36.8 1.6
359 1 9.6 35.2 0.0
360 4 11.2 36.8 1.6
361 4 12.8 35.2 0.0
362 3 14.4 36.8 1.6
363 4 16.0 35.2 0.0
364 3 17.6 36.8 1.6
365 4 19.2 35.2 0.0
366 2 20.8 36.8 1.6
367 4 22.4 35.2 0.0
368 3 24.0 36.8 1.6
369 1 25.6 35.2 0.0
370 4 27.2 36.8 1.6
371 1 28.8 35.2 0.0
372 3 30.4 36.8 1.6
373 4 32.0 35.2 0.0
374 3 33.6 36.8 1.6
375 1 35.2 35.2 0.0
376 4 36.8 36.8 1.6
377 4 38.4 35.2 0.0
378 3 40.0 36.8 1.6
379 1 41.6 35.2 0.0
380 2 43.2 36.8 1.6
381 1 44.8 35.2 0.0
382 2 46.4 36.8 1.6
383 1 48.0 35.2 0.0
384 3 49.6 36.8 1.6
385 1 0.0 38.4 0.0
386 3 1.6 40.0 1.6
387 4 3.2 38.4 0.0
388 3 4.8 40.0 1.6
389 1 6.4 38.4 0.0
390 4 8.0 40.0 1.6
391 1 9.6 38.4 0.0
392 3 11.2 40.0 1.6
393 4 12.8 38.4 0.0
394 3 14.4 40.0 1.6
395 4 16.0 38.4 0.0
396 3 17.6 40.0 1.6
397 1 19.2 38.4 0.0
398 3 20.8 40.0 1.6
399 1 22.4 38.4 0.0
400 3 24.0 40.0 1.6
401 1 25.6 38.4 0.0
402 4 27.2 40.0 1.6
403 4 28.8 38.4 0.0
404 4 30.4 40.0 1.6
405 4 32.0 38.4 0.0
406 4 33.6 40.0 1.6
407 1 35.2 38.4 0.0
408 4 36.8 40.0 1.6
409 1 38.4 38.4 0.0
410 4 40.0 40.0 1.6
411 1 41.6 38.4 0.0
412 4 43.2 40.0 1.6
413 4 44.8 38.4 0.0
414 4 46.4 40.0 1.6
415 1 48.0 38.4 0.0
416 3 49.6 40.0 1.6
417 1 0.0 41.6 0.0
418 3 1.6 43.2 1.6
419 1 3.2 41.6 0.0
420 3 4.8 43.2 1.6
421 1 6.4 41.6 0.0
422 3 8.0 43.2 1.6
423 4 9.6 41.6 0.0
424 3 11.2 43.2 1.6
425 4 12.8 41.6 0.0
426 4 14.4 43.2 1.6
427 1 16.0 41.6 0.0
428 4 17.6 43.2 1.6
429 1 19.2 41.6 0.0
430 3 20.8 43.2 1.6
431 1 22.4 41.6 0.0
432 3 24.0 43.2 1.6
433 1 25.6 41.6 0.0
434 3 27.2 43.2 1.6
435 1 28.8 41.6 0.0
436 4 30.4 43.2 1.6
437 3 32.0 41.6 0.0
438 4 33.6 43.2 1.6
439 4 35.2 41.6 0.0
440 4 36.8 43.2 1.6
441 4 38.4 41.6 0.0
442 4 40.0 43.2 1.6
443 4 41.6 41.6 0.0
444 3 43.2 43.2 1.6
445 4 44.8 41.6 0.0
446 4 46.4 43.2 1.6
447 1 48.0 41.6 0.0
448 3 49.6 43.2 1.6
449 4 0.0 44.8 0.0
450 2 1.6 46.4 1.6
451 1 3.2 44.8 0.0
452 4 4.8 46.4 1.6
453 1 6.4 44.8 0.0
454 3 8.0 46.4 1.6
455 1 9.6 44.8 0.0
456 3 11.2 46.4 1.6
457 1 12.8 44.8 0.0
458 3 14.4 46.4 1.6
459 1 16.0 44.8 0.0
460 3 17.6 46.4 1.6
461 1 19.2 44.8 0.0
462 2 20.8 46.4 1.6
463 1 22.4 44.8 0.0
464 3 24.0 46.4 1.6
465 4 25.6 44.8 0.0
466 4 27.2 46.4 1.6
467 4 28.8 44.8 0.0
468 4 30.4 46.4 1.6
469 4 32.0 44.8 0.0
470 4 33.6 46.4 1.6
471 2 35.2 44.8 0.0
472 1 36.8 46.4 1.6
473 2 38.4 44.8 0.0
474 4 40.0 46.4 1.6
475 4 41.6 44.8 0.0
476 4 43.2 46.4 1.6
477 1 44.8 44.8 0.0
478 3 46.4 46.4 1.6
479 1 48.0 44.8 0.0
480 3 49.6 46.4 1.6
481 1 0.0 48.0 0.0
482 3 1.6 49.6 1.6
483 1 3.2 48.0 0.0
484 2 4.8 49.6 1.6
485 1 6.4 48.0 0.0
486 4 8.0 49.6 1.6
487 1 9.6 48.0 0.0
488 3 11.2 49.6 1.6
489 1 12.8 48.0 0.0
490 3 14.4 49.6 1.6
491 1 16.0 48.0 0.0
492 3 17.6 49.6 1.6
493 1 19.2 48.0 0.0
494 4 20.8 49.6 1.6
495 4 22.4 48.0 0.0
496 4 24.0 49.6 1.6
497 4 25.6 48.0 0.0
498 4 27.2 49.6 1.6
499 2 28.8 48.0 0.0
500 4 30.4 49.6 1.6
501 2 32.0 48.0 0.0
502 4 33.6 49.6 1.6
503 3 35.2 48.0 0.0
504 4 36.8 49.6 1.6
505 4 38.4 48.0 0.0
506 3 40.0 49.6 1.6
507 4 41.6 48.0 0.0
508 2 43.2 49.6 1.6
509 4 44.8 48.0 0.0
510 3 46.4 49.6 1.6
511 4 48.0 48.0 0.0
512 4 49.6 49.6 1.6
513 1 0.0 0.0 3.2
514 2 1.6 1.6 4.8
515 1 3.2 0.0 3.2
516 3 4.8 1.6 4.8
517 1 6.4 0.0 3.2
518 4 8.0 1.6 4.8
519 1 9.6 0.0 3.2
520 3 11.2 1.6 4.8
521 1 12.8 0.0 3.2
522 3 14.4 1.6 4.8
523 1 16.0 0.0 3.2
524 4 17.6 1.6 4.8
525 4 19.2 0.0 3.2
526 3 20.8 1.6 4.8
527 4 22.4 0.0 3.2
528 4 24.0 1.6 4.8
529 4 25.6 0.0 3.2
530 2 27.2 1.6 4.8
531 4 28.8 0.0 3.2
532 4 30.4 1.6 4.8
533 3 32.0 0.0 3.2
534 4 33.6 1.6 4.8
535 3 35.2 0.0 3.2
536 2 36.8 1.6 4.8
537 4 38.4 0.0 3.2
538 4 40.0 1.6 4.8
539 1 41.6 0.0 3.2
540 4 43.2 1.6 4.8
541 1 44.8 0.0 3.2
542 3 46.4 1.6 4.8
543 1 48.0 0.0 3.2
544 2 49.6 1.6 4.8
545 1 0.0 3.2 3.2
546 2 1.6 4.8 4.8
547 1 3.2 3.2 3.2
548 3 4.8 4.8 4.8
549 1 6.4 3.2 3.2
550 2 8.0 4.8 4.8
551 4 9.6 3.2 3.2
552 4 11.2 4.8 4.8
553 1 12.8 3.2 3.2
554 3 14.4 4.8 4.8
555 1 16.0 3.2 3.2
556 3 17.6 4.8 4.8
557 1 19.2 3.2 3.2
558 3 20.8 4.8 4.8
559 1 22.4 3.2 3.2
560 2 24.0 4.8 4.8
561 1 25.6 3.2 3.2
562 4 27.2 4.8 4.8
563 4 28.8 3.2 3.2
564 2 30.4 4.8 4.8
565 2 32.0 3.2 3.2
566 4 33.6 4.8 4.8
567 4 35.2 3.2 3.2
568 3 36.8 4.8 4.8
569 1 38.4 3.2 3.2
570 2 40.0 4.8 4.8
571 1 41.6 3.2 3.2
572 3 43.2 4.8 4.8
573 4 44.8 3.2 3.2
574 3 46.4 4.8 4.8
575 4 48.0 3.2 3.2
576 3 49.6 4.8 4.8
577 4 0.0 6.4 3.2
578 3 1.6 8.0 4.8
579 1 3.2 6.4 3.2
580 3 4.8 8.0 4.8
581 4 6.4 6.4 3.2
582 4 8.0 8.0 4.8
583 4 9.6 6.4 3.2
584 4 11.2 8.0 4.8
585 4 12.8 6.4 3.2
586 3 14.4 8.0 4.8
587 1 16.0 6.4 3.2
588 3 17.6 8.0 4.8
589 1 19.2 6.4 3.2
590 2 20.8 8.0 4.8
591 4 22.4 6.4 3.2
592 3 24.0 8.0 4.8
593 1 25.6 6.4 3.2
594 3 27.2 8.0 4.8
595 4 28.8 6.4 3.2
596 4 30.4 8.0 4.8
597 4 32.0 6.4 3.2
598 3 33.6 8.0 4.8
599 1 35.2 6.4 3.2
600 4 36.8 8.0 4.8
601 4 38.4 6.4 3.2
602 4 40.0 8.0 4.8
603 1 41.6 6.4 3.2
604 2 43.2 8.0 4.8
605 4 44.8 6.4 3.2
606 3 46.4 8.0 4.8
607 1 48.0 6.4 3.2
608 4 49.6 8.0 4.8
609 1 0.0 9.6 3.2
610 3 1.6 11.2 4.8
611 1 3.2 9.6 3.2
612 4 4.8 11.2 4.8
613 1 6.4 9.6 3.2
614 4 8.0 11.2 4.8
615 4 9.6 9.6 3.2
616 3 11.2 11.2 4.8
617 1 12.8 9.6 3.2
618 3 14.4 11.2 4.8
619 1 16.0 9.6 3.2
620 4 17.6 11.2 4.8
621 1 19.2 9.6 3.2
622 3 20.8 11.2 4.8
623 1 22.4 9.6 3.2
624 3 24.0 11.2 4.8
625 1 25.6 9.6 3.2
626 3 27.2 11.2 4.8
627 4 28.8 9.6 3.2
628 3 30.4 11.2 4.8
629 4 32.0 9.6 3.2
630 2 33.6 11.2 4.8
631 1 35.2 9.6 3.2
632 3 36.8 11.2 4.8
633 4 38.4 9.6 3.2
634 3 40.0 11.2 4.8
635 1 41.6 9.6 3.2
636 3 43.2 11.2 4.8
637 4 44.8 9.6 3.2
638 4 46.4 11.2 4.8
639 4 48.0 9.6 3.2
640 2 49.6 11.2 4.8
641 1 0.0 12.8 3.2
642 3 1.6 14.4 4.8
643 1 3.2 12.8 3.2
644 4 4.8 14.4 4.8
645 4 6.4 12.8 3.2
646 2 8.0 14.4 4.8
647 4 9.6 12.8 3.2
648 3 11.2 14.4 4.8
649 1 12.8 12.8 3.2
650 3 14.4 14.4 4.8
651 1 16.0 12.8 3.2
652 2 17.6 14.4 4.8
653 1 19.2 12.8 3.2
654 2 20.8 14.4 4.8
655 1 22.4 12.8 3.2
656 3 24.0 14.4 4.8
657 4 25.6 12.8 3.2
658 4 27.2 14.4 4.8
659 4 28.8 12.8 3.2
660 3 30.4 14.4 4.8
661 1 32.0 12.8 3.2
662 4 33.6 14.4 4.8
663 4 35.2 12.8 3.2
664 3 36.8 14.4 4.8
665 4 38.4 12.8 3.2
666 3 40.0 14.4 4.8
667 1 41.6 12.8 3.2
668 3 43.2 14.4 4.8
669 1 44.8 12.8 3.2
670 3 46.4 14.4 4.8
671 1 48.0 12.8 3.2
672 3 49.6 14.4 4.8
673 1 0.0 16.0 3.2
674 3 1.6 17.6 4.8
675 1 3.2 16.0 3.2
676 4 4.8 17.6 4.8
677 4 6.4 16.0 3.2
678 2 8.0 17.6 4.8
679 4 9.6 16.0 3.2
680 3 11.2 17.6 4.8
681 4 12.8 16.0 3.2
682 3 14.4 17.6 4.8
683 1 16.0 16.0 3.2
684 3 17.6 17.6 4.8
685 1 19.2 16.0 3.2
686 4 20.8 17.6 4.8
687 1 22.4 16.0 3.2
688 3 24.0 17.6 4.8
689 1 25.6 16.0 3.2
690 4 27.2 17.6 4.8
691 1 28.8 16.0 3.2
692 3 30.4 17.6 4.8
693 4 32.0 16.0 3.2
694 3 33.6 17.6 4.8
695 4 35.2 16.0 3.2
696 4 36.8 17.6 4.8
697 4 38.4 16.0 3.2
698 4 40.0 17.6 4.8
699 1 41.6 16.0 3.2
700 3 43.2 17.6 4.8
701 1 44.8 16.0 3.2
702 2 46.4 17.6 4.8
703 1 48.0 16.0 3.2
704 3 49.6 17.6 4.8
705 1 0.0 19.2 3.2
706 3 1.6 20.8 4.8
707 1 3.2 19.2 3.2
708 3 4.8 20.8 4.8
709 4 6.4 19.2 3.2
710 2 8.0 20.8 4.8
711 4 9.6 19.2 3.2
712 3 11.2 20.8 4.8
713 1 12.8 19.2 3.2
714 3 14.4 20.8 4.8
715 1 16.0 19.2 3.2
716 3 17.6 20.8 4.8
717 4 19.2 19.2 3.2
718 4 20.8 20.8 4.8
719 4 22.4 19.2 3.2
720 4 24.0 20.8 4.8
721 4 25.6 19.2 3.2
722 4 27.2 20.8 4.8
723 4 28.8 19.2 3.2
724 3 30.4 20.8 4.8
725 4 32.0 19.2 3.2
726 4 33.6 20.8 4.8
727 4 35.2 19.2 3.2
728 2 36.8 20.8 4.8
729 1 38.4 19.2 3.2
730 3 40.0 20.8 4.8
731 4 41.6 19.2 3.2
732 4 43.2 20.8 4.8
733 1 44.8 19.2 3.2
734 2 46.4 20.8 4.8
735 1 48.0 19.2 3.2
736 3 49.6 20.8 4.8
737 4 0.0 22.4 3.2
738 3 1.6 24.0 4.8
739 1 3.2 22.4 3.2
740 3 4.8 24.0 4.8
741 4 6.4 22.4 3.2
742 2 8.0 24.0 4.8
743 4 9.6 22.4 3.2
744 4 11.2 24.0 4.8
745 1 12.8 22.4 3.2
746 3 14.4 24.0 4.8
747 4 16.0 22.4 3.2
748 4 17.6 24.0 4.8
749 4 19.2 22.4 3.2
750 4 20.8 24.0 4.8
751 3 22.4 22.4 3.2
752 4 24.0 24.0 4.8
753 4 25.6 22.4 3.2
754 3 27.2 24.0 4.8
755 4 28.8 22.4 3.2
756 2 30.4 24.0 4.8
757 1 32.0 22.4 3.2
758 2 33.6 24.0 4.8
759 4 35.2 22.4 3.2
760 4 36.8 24.0 4.8
761 4 38.4 22.4 3.2
762 4 40.0 24.0 4.8
763 1 41.6 22.4 3.2
764 4 43.2 24.0 4.8
765 1 44.8 22.4 3.2
766 3 46.4 24.0 4.8
767 4 48.0 22.4 3.2
768 4 49.6 24.0 4.8
769 1 0.0 25.6 3.2
770 3 1.6 27.2 4.8
771 1 3.2 25.6 3.2
772 2 4.8 27.2 4.8
773 4 6.4 25.6 3.2
774 2 8.0 27.2 4.8
775 4 9.6 25.6 3.2
776 2 11.2 27.2 4.8
777 4 12.8 25.6 3.2
778 4 14.4 27.2 4.8
779 4 16.0 25.6 3.2
780 4 17.6 27.2 4.8
781 3 19.2 25.6 3.2
782 1 20.8 27.2 4.8
783 4 22.4 25.6 3.2
784 1 24.0 27.2 4.8
785 3 25.6 25.6 3.2
786 4 27.2 27.2 4.8
787 4 28.8 25.6 3.2
788 3 30.4 27.2 4.8
789 1 32.0 25.6 3.2
790 4 33.6 27.2 4.8
791 1 35.2 25.6 3.2
792 4 36.8 27.2 4.8
793 4 38.4 25.6 3.2
794 3 40.0 27.2 4.8
795 1 41.6 25.6 3.2
796 4 43.2 27.2 4.8
797 1 44.8 25.6 3.2
798 3 46.4 27.2 4.8
799 4 48.0 25.6 3.2
800 2 49.6 27.2 4.8
801 4 0.0 28.8 3.2
802 4 1.6 30.4 4.8
803 1 3.2 28.8 3.2
804 3 4.8 30.4 4.8
805 4 6.4 28.8 3.2
806 3 8.0 30.4 4.8
807 4 9.6 28.8 3.2
808 4 11.2 30.4 4.8
809 2 12.8 28.8 3.2
810 4 14.4 30.4 4.8
811 3 16.0 28.8 3.2
812 4 17.6 30.4 4.8
813 3 19.2 28.8 3.2
814 1 20.8 30.4 4.8
815 4 22.4 28.8 3.2
816 1 24.0 30.4 4.8
817 3 25.6 28.8 3.2
818 4 27.2 30.4 4.8
819 2 28.8 28.8 3.2
820 4 30.4 30.4 4.8
821 4 32.0 28.8 3.2
822 3 33.6 30.4 4.8
823 1 35.2 28.8 3.2
824 3 36.8 30.4 4.8
825 1 38.4 28.8 3.2
826 3 40.0 30.4 4.8
827 4 41.6 28.8 3.2
828 2 43.2 30.4 4.8
829 1 44.8 28.8 3.2
830 3 46.4 30.4 4.8
831 1 48.0 28.8 3.2
832 4 49.6 30.4 4.8
833 1 0.0 32.0 3.2
834 3 1.6 33.6 4.8
835 1 3.2 32.0 3.2
836 3 4.8 33.6 4.8
837 1 6.4 32.0 3.2
838 3 8.0 33.6 4.8
839 4 9.6 32.0 3.2
840 4 11.2 33.6 4.8
841 1 12.8 32.0 3.2
842 2 14.4 33.6 4.8
843 4 16.0 32.0 3.2
844 4 17.6 33.6 4.8
845 4 19.2 32.0 3.2
846 3 20.8 33.6 4.8
847 3 22.4 32.0 3.2
848 4 24.0 33.6 4.8
849 3 25.6 32.0 3.2
850 4 27.2 33.6 4.8
851 3 28.8 32.0 3.2
852 4 30.4 33.6 4.8
853 1 32.0 32.0 3.2
854 4 33.6 33.6 4.8
855 4 35.2 32.0 3.2
856 4 36.8 33.6 4.8
857 4 38.4 32.0 3.2
858 3 40.0 33.6 4.8
859 4 41.6 32.0 3.2
860 3 43.2 33.6 4.8
861 1 44.8 32.0 3.2
862 3 46.4 33.6 4.8
863 1 48.0 32.0 3.2
864 2 49.6 33.6 4.8
865 1 0.0 35.2 3.2
866 3 1.6 36.8 4.8
867 1 3.2 35.2 3.2
868 2 4.8 36.8 4.8
869 4 6.4 35.2 3.2
870 4 8.0 36.8 4.8
871 1 9.6 35.2 3.2
872 3 11.2 36.8 4.8
873 4 12.8 35.2 3.2
874 4 14.4 36.8 4.8
875 1 16.0 35.2 3.2
876 3 17.6 36.8 4.8
877 4 19.2 35.2 3.2
878 4 20.8 36.8 4.8
879 4 22.4 35.2 3.2
880 3 24.0 36.8 4.8
881 4 25.6 35.2 3.2
882 4 27.2 36.8 4.8
883 2 28.8 35.2 3.2
884 4 30.4 36.8 4.8
885 1 32.0 35.2 3.2
886 4 33.6 36.8 4.8
887 4 35.2 35.2 3.2
888 4 36.8 36.8 4.8
889 4 38.4 35.2 3.2
890 4 40.0 36.8 4.8
891 1 41.6 35.2 3.2
892 3 43.2 36.8 4.8
893 1 44.8 35.2 3.2
894 3 46.4 36.8 4.8
895 1 48.0 35.2 3.2
896 2 49.6 36.8 4.8
897 1 0.0 38.4 3.2
898 3 1.6 40.0 4.8
899 1 3.2 38.4 3.2
900 2 4.8 40.0 4.8
901 1 6.4 38.4 3.2
902 3 8.0 40.0 4.8
903 1 9.6 38.4 3.2
904 3 11.2 40.0 4.8
905 1 12.8 38.4 3.2
906 3 14.4 40.0 4.8
907 1 16.0 38.4 3.2
908 3 17.6 40.0 4.8
909 1 19.2 38.4 3.2
910 4 20.8 40.0 4.8
911 4 22.4 38.4 3.2
912 4 24.0 40.0 4.8
913 4 25.6 38.4 3.2
914 4 27.2 40.0 4.8
915 3 28.8 38.4 3.2
916 4 30.4 40.0 4.8
917 4 32.0 38.4 3.2
918 4 33.6 40.0 4.8
919 4 35.2 38.4 3.2
920 4 36.8 40.0 4.8
921 2 38.4 38.4 3.2
922 4 40.0 40.0 4.8
923 4 41.6 38.4 3.2
924 4 43.2 40.0 4.8
925 4 44.8 38.4 3.2
926 3 46.4 40.0 4.8
927 4 48.0 38.4 3.2
928 3 49.6 40.0 4.8
929 1 0.0 41.6 3.2
930 3 1.6 43.2 4.8
931 1 3.2 41.6 3.2
932 3 4.8 43.2 4.8
933 1 6.4 41.6 3.2
934 3 8.0 43.2 4.8
935 1 9.6 41.6 3.2
936 2 11.2 43.2 4.8
937 1 12.8 41.6 3.2
938 3 14.4 43.2 4.8
939 1 16.0 41.6 3.2
940 3 17.6 43.2 4.8
941 1 19.2 41.6 3.2
942 3 20.8 43.2 4.8
943 1 22.4 41.6 3.2
944 4 24.0 43.2 4.8
945 4 25.6 41.6 3.2
946 4 27.2 43.2 4.8
947 1 28.8 41.6 3.2
948 4 30.4 43.2 4.8
949 3 32.0 41.6 3.2
950 1 33.6 43.2 4.8
951 3 35.2 41.6 3.2
952 1 36.8 43.2 4.8
953 3 38.4 41.6 3.2
954 4 40.0 43.2 4.8
955 4 41.6 41.6 3.2
956 4 43.2 43.2 4.8
957 4 44.8 41.6 3.2
958 3 46.4 43.2 4.8
959 4 48.0 41.6 3.2
960 4 49.6 43.2 4.8
961 1 0.0 44.8 3.2
962 2 1.6 46.4 4.8
963 1 3.2 44.8 3.2
964 3 4.8 46.4 4.8
965 1 6.4 44.8 3.2
966 3 8.0 46.4 4.8
967 1 9.6 44.8 3.2
968 4 11.2 46.4 4.8
969 1 12.8 44.8 3.2
970 3 14.4 46.4 4.8
971 1 16.0 44.8 3.2
972 3 17.6 46.4 4.8
973 1 19.2 44.8 3.2
974 3 20.8 46.4 4.8
975 1 22.4 44.8 3.2
976 4 24.0 46.4 4.8
977 1 25.6 44.8 3.2
978 4 27.2 46.4 4.8
979 4 28.8 44.8 3.2
980 1 30.4 46.4 4.8
981 2 32.0 44.8 3.2
982 4 33.6 46.4 4.8
983 4 35.2 44.8 3.2
984 1 36.8 46.4 4.8
985 3 38.4 44.8 3.2
986 4 40.0 46.4 4.8
987 4 41.6 44.8 3.2
988 2 43.2 46.4 4.8
989 4 44.8 44.8 3.2
990 3 46.4 46.4 4.8
991 4 48.0 44.8 3.2
992 2 49.6 46.4 4.8
993 4 0.0 48.0 3.2
994 4 1.6 49.6 4.8
995 4 3.2 48.0 3.2
996 4 4.8 49.6 4.8
997 4 6.4 48.0 3.2
998 3 8.0 49.6 4.8
999 1 9.6 48.0 3.2
1000 3 11.2 49.6 4.8
1001 1 12.8 48.0 3.2
1002 3 14.4 49.6 4.8
1003 1 16.0 48.0 3.2
1004 4 17.6 49.6 4.8
1005 1 19.2 48.0 3.2
1006 3 20.8 49.6 4.8
1007 4 22.4 48.0 3.2
1008 2 24.0 49.6 4.8
1009 4 25.6 48.0 3.2
1010 1 27.2 49.6 4.8
1011 3 28.8 48.0 3.2
1012 4 30.4 49.6 4.8
1013 4 32.0 48.0 3.2
1014 1 33.6 49.6 4.8
1015 3 35.2 48.0 3.2
1016 1 36.8 49.6 4.8
1017 4 38.4 48.0 3.2
1018 3 40.0 49.6 4.8
1019 1 41.6 48.0 3.2
1020 4 43.2 49.6 4.8
1021 4 44.8 48.0 3.2
1022 3 46.4 49.6 4.8
1023 1 48.0 48.0 3.2
1024 2 49.6 49.6 4.8
1025 1 0.0 0.0 6.4
1026 3 1.6 1.6 8.0
1027 4 3.2 0.0 6.4
1028 3 4.8 1.6 8.0
1029 4 6.4 0.0 6.4
1030 3 8.0 1.6 8.0
1031 1 9.6 0.0 6.4
1032 4 11.2 1.6 8.0
1033 1 12.8 0.0 6.4
1034 3 14.4 1.6 8.0
1035 1 16.0 0.0 6.4
1036 3 17.6 1.6 8.0
1037 1 19.2 0.0 6.4
1038 3 20.8 1.6 8.0
1039 1 22.4 0.0 6.4
1040 4 24.0 1.6 8.0
1041 2 25.6 0.0 6.4
1042 3 27.2 1.6 8.0
1043 4 28.8 0.0 6.4
1044 3 30.4 1.6 8.0
1045 3 32.0 0.0 6.4
1046 4 33.6 1.6 8.0
1047 2 35.2 0.0 6.4
1048 4 36.8 1.6 8.0
1049 4 38.4 0.0 6.4
1050 3 40.0 1.6 8.0
1051 4 41.6 0.0 6.4
1052 3 43.2 1.6 8.0
1053 1 44.8 0.0 6.4
1054 4 46.4 1.6 8.0
1055 1 48.0 0.0 6.4
1056 2 49.6 1.6 8.0
1057 1 0.0 3.2 6.4
1058 3 1.6 4.8 8.0
1059 1 3.2 3.2 6.4
1060 2 4.8 4.8 8.0
1061 1 6.4 3.2 6.4
1062 4 8.0 4.8 8.0
1063 4 9.6 3.2 6.4
1064 3 11.2 4.8 8.0
1065 1 12.8 3.2 6.4
1066 3 14.4 4.8 8.0
1067 1 16.0 3.2 6.4
1068 3 17.6 4.8 8.0
1069 1 19.2 3.2 6.4
1070 2 20.8 4.8 8.0
1071 1 22.4 3.2 6.4
1072 2 24.0 4.8 8.0
1073 1 25.6 3.2 6.4
1074 2 27.2 4.8 8.0
1075 1 28.8 3.2 6.4
1076 3 30.4 4.8 8.0
1077 4 32.0 3.2 6.4
1078 2 33.6 4.8 8.0
1079 4 35.2 3.2 6.4
1080 3 36.8 4.8 8.0
1081 1 38.4 3.2 6.4
1082 3 40.0 4.8 8.0
1083 1 41.6 3.2 6.4
1084 3 43.2 4.8 8.0
1085 1 44.8 3.2 6.4
1086 3 46.4 4.8 8.0
1087 1 48.0 3.2 6.4
1088 3 49.6 4.8 8.0
1089 1 0.0 6.4 6.4
1090 4 1.6 8.0 8.0
1091 1 3.2 6.4 6.4
1092 3 4.8 8.0 8.0
1093 1 6.4 6.4 6.4
1094 3 8.0 8.0 8.0
1095 4 9.6 6.4 6.4
1096 3 11.2 8.0 8.0
1097 1 12.8 6.4 6.4
1098 3 14.4 8.0 8.0
1099 1 16.0 6.4 6.4
1100 3 17.6 8.0 8.0
1101 4 19.2 6.4 6.4
1102 4 20.8 8.0 8.0
1103 4 22.4 6.4 6.4
1104 3 24.0 8.0 8.0
1105 1 25.6 6.4 6.4
1106 4 27.2 8.0 8.0
1107 1 28.8 6.4 6.4
1108 4 30.4 8.0 8.0
1109 4 32.0 6.4 6.4
1110 2 33.6 8.0 8.0
1111 1 35.2 6.4 6.4
1112 4 36.8 8.0 8.0
1113 4 38.4 6.4 6.4
1114 2 40.0 8.0 8.0
1115 1 41.6 6.4 6.4
1116 3 43.2 8.0 8.0
1117 1 44.8 6.4 6.4
1118 4 46.4 8.0 8.0
1119 1 48.0 6.4 6.4
1120 3 49.6 8.0 8.0
1121 4 0.0 9.6 6.4
1122 2 1.6 11.2 8.0
1123 4 3.2 9.6 6.4
1124 3 4.8 11.2 8.0
1125 1 6.4 9.6 6.4
1126 2 8.0 11.2 8.0
1127 1 9.6 9.6 6.4
1128 2 11.2 11.2 8.0
1129 1 12.8 9.6 6.4
1130 3 14.4 11.2 8.0
1131 1 16.0 9.6 6.4
1132 3 17.6 11.2 8.0
1133 4 19.2 9.6 6.4
1134 3 20.8 11.2 8.0
1135 1 22.4 9.6 6.4
1136 3 24.0 11.2 8.0
1137 1 25.6 9.6 6.4
1138 3 27.2 11.2 8.0
1139 4 28.8 9.6 6.4
1140 2 30.4 11.2 8.0
1141 4 32.0 9.6 6.4
1142 4 33.6 11.2 8.0
1143 2 35.2 9.6 6.4
1144 3 36.8 11.2 8.0
1145 4 38.4 9.6 6.4
1146 2 40.0 11.2 8.0
1147 4 41.6 9.6 6.4
1148 4 43.2 11.2 8.0
1149 4 44.8 9.6 6.4
1150 2 46.4 11.2 8.0
1151 4 48.0 9.6 6.4
1152 4 49.6 11.2 8.0
1153 1 0.0 12.8 6.4
1154 3 1.6 14.4 8.0
1155 1 3.2 12.8 6.4
1156 3 4.8 14.4 8.0
1157 4 6.4 12.8 6.4
1158 3 8.0 14.4 8.0
1159 4 9.6 12.8 6.4
1160 4 11.2 14.4 8.0
1161 1 12.8 12.8 6.4
1162 2 14.4 14.4 8.0
1163 1 16.0 12.8 6.4
1164 3 17.6 14.4 8.0
1165 1 19.2 12.8 6.4
1166 3 20.8 14.4 8.0
1167 1 22.4 12.8 6.4
1168 3 24.0 14.4 8.0
1169 1 25.6 12.8 6.4
1170 3 27.2 14.4 8.0
1171 1 28.8 12.8 6.4
1172 3 30.4 14.4 8.0
1173 1 32.0 12.8 6.4
1174 2 33.6 14.4 8.0
1175 4 35.2 12.8 6.4
1176 2 36.8 14.4 8.0
1177 4 38.4 12.8 6.4
1178 4 40.0 14.4 8.0
1179 1 41.6 12.8 6.4
1180 2 43.2 14.4 8.0
1181 1 44.8 12.8 6.4
1182 3 46.4 14.4 8.0
1183 4 48.0 12.8 6.4
1184 3 49.6 14.4 8.0
1185 1 0.0 16.0 6.4
1186 3 1.6 17.6 8.0
1187 1 3.2 16.0 6.4
1188 3 4.8 17.6 8.0
1189 4 6.4 16.0 6.4
1190 4 8.0 17.6 8.0
1191 4 9.6 16.0 6.4
1192 2 11.2 17.6 8.0
1193 1 12.8 16.0 6.4
1194 4 14.4 17.6 8.0
1195 4 16.0 16.0 6.4
1196 3 17.6 17.6 8.0
1197 4 19.2 16.0 6.4
1198 2 20.8 17.6 8.0
1199 1 22.4 16.0 6.4
1200 3 24.0 17.6 8.0
1201 1 25.6 16.0 6.4
1202 3 27.2 17.6 8.0
1203 4 28.8 16.0 6.4
1204 4 30.4 17.6 8.0
1205 4 32.0 16.0 6.4
1206 4 33.6 17.6 8.0
1207 1 35.2 16.0 6.4
1208 3 36.8 17.6 8.0
1209 4 38.4 16.0 6.4
1210 3 40.0 17.6 8.0
1211 4 41.6 16.0 6.4
1212 3 43.2 17.6 8.0
1213 1 44.8 16.0 6.4
1214 3 46.4 17.6 8.0
1215 1 48.0 16.0 6.4
1216 3 49.6 17.6 8.0
1217 1 0.0 19.2 6.4
1218 3 1.6 20.8 8.0
1219 1 3.2 19.2 6.4
1220 3 4.8 20.8 8.0
1221 1 6.4 19.2 6.4
1222 4 8.0 20.8 8.0
1223 1 9.6 19.2 6.4
1224 2 11.2 20.8 8.0
1225 1 12.8 19.2 6.4
1226 4 14.4 20.8 8.0
1227 1 16.0 19.2 6.4
1228 2 17.6 20.8 8.0
1229 4 19.2 19.2 6.4
1230 3 20.8 20.8 8.0
1231 4 22.4 19.2 6.4
1232 4 24.0 20.8 8.0
1233 4 25.6 19.2 6.4
1234 3 27.2 20.8 8.0
1235 4 28.8 19.2 6.4
1236 3 30.4 20.8 8.0
1237 4 32.0 19.2 6.4
1238 4 33.6 20.8 8.0
1239 4 35.2 19.2 6.4
1240 2 36.8 20.8 8.0
1241 4 38.4 19.2 6.4
1242 2 40.0 20.8 8.0
1243 1 41.6 19.2 6.4
1244 3 43.2 20.8 8.0
1245 1 44.8 19.2 6.4
1246 3 46.4 20.8 8.0
1247 1 48.0 19.2 6.4
1248 3 49.6 20.8 8.0
1249 1 0.0 22.4 6.4
1250 2 1.6 24.0 8.0
1251 1 3.2 22.4 6.4
1252 3 4.8 24.0 8.0
1253 1 6.4 22.4 6.4
1254 2 8.0 24.0 8.0
1255 2 9.6 22.4 6.4
1256 2 11.2 24.0 8.0
1257 1 12.8 22.4 6.4
1258 3 14.4 24.0 8.0
1259 4 16.0 22.4 6.4
1260 3 17.6 24.0 8.0
1261 4 19.2 22.4 6.4
1262 4 20.8 24.0 8.0
1263 3 22.4 22.4 6.4
1264 4 24.0 24.0 8.0
1265 4 25.6 22.4 6.4
1266 4 27.2 24.0 8.0
1267 1 28.8 22.4 6.4
1268 4 30.4 24.0 8.0
1269 1 32.0 22.4 6.4
1270 3 33.6 24.0 8.0
1271 1 35.2 22.4 6.4
1272 2 36.8 24.0 8.0
1273 4 38.4 22.4 6.4
1274 3 40.0 24.0 8.0
1275 1 41.6 22.4 6.4
1276 3 43.2 24.0 8.0
1277 1 44.8 22.4 6.4
1278 3 46.4 24.0 8.0
1279 1 48.0 22.4 6.4
1280 3 49.6 24.0 8.0
1281 1 0.0 25.6 6.4
1282 4 1.6 27.2 8.0
1283 1 3.2 25.6 6.4
1284 3 4.8 27.2 8.0
1285 1 6.4 25.6 6.4
1286 2 8.0 27.2 8.0
1287 1 9.6 25.6 6.4
1288 4 11.2 27.2 8.0
1289 1 12.8 25.6 6.4
1290 2 14.4 27.2 8.0
1291 1 16.0 25.6 6.4
1292 4 17.6 27.2 8.0
1293 4 19.2 25.6 6.4
1294 4 20.8 27.2 8.0
1295 4 22.4 25.6 6.4
1296 4 24.0 27.2 8.0
1297 4 25.6 25.6 6.4
1298 4 27.2 27.2 8.0
1299 4 28.8 25.6 6.4
1300 4 30.4 27.2 8.0
1301 1 32.0 25.6 6.4
1302 2 33.6 27.2 8.0
1303 4 35.2 25.6 6.4
1304 4 36.8 27.2 8.0
1305 4 38.4 25.6 6.4
1306 4 40.0 27.2 8.0
1307 4 41.6 25.6 6.4
1308 2 43.2 27.2 8.0
1309 4 44.8 25.6 6.4
1310 3 46.4 27.2 8.0
1311 1 48.0 25.6 6.4
1312 4 49.6 27.2 8.0
1313 4 0.0 28.8 6.4
1314 3 1.6 30.4 8.0
1315 1 3.2 28.8 6.4
1316 4 4.8 30.4 8.0
1317 1 6.4 28.8 6.4
1318 3 8.0 30.4 8.0
1319 4 9.6 28.8 6.4
1320 3 11.2 30.4 8.0
1321 2 12.8 28.8 6.4
1322 2 14.4 30.4 8.0
1323 4 16.0 28.8 6.4
1324 4 17.6 30.4 8.0
1325 3 19.2 28.8 6.4
1326 4 20.8 30.4 8.0
1327 3 22.4 28.8 6.4
1328 1 24.0 30.4 8.0
1329 4 25.6 28.8 6.4
1330 1 27.2 30.4 8.0
1331 4 28.8 28.8 6.4
1332 4 30.4 30.4 8.0
1333 4 32.0 28.8 6.4
1334 4 33.6 30.4 8.0
1335 4 35.2 28.8 6.4
1336 3 36.8 30.4 8.0
1337 4 38.4 28.8 6.4
1338 3 40.0 30.4 8.0
1339 1 41.6 28.8 6.4
1340 3 43.2 30.4 8.0
1341 1 44.8 28.8 6.4
1342 3 46.4 30.4 8.0
1343 1 48.0 28.8 6.4
1344 3 49.6 30.4 8.0
1345 4 0.0 32.0 6.4
1346 3 1.6 33.6 8.0
1347 4 3.2 32.0 6.4
1348 4 4.8 33.6 8.0
1349 1 6.4 32.0 6.4
1350 2 8.0 33.6 8.0
1351 4 9.6 32.0 6.4
1352 4 11.2 33.6 8.0
1353 1 12.8 32.0 6.4
1354 3 14.4 33.6 8.0
1355 4 16.0 32.0 6.4
1356 2 17.6 33.6 8.0
1357 4 19.2 32.0 6.4
1358 2 20.8 33.6 8.0
1359 4 22.4 32.0 6.4
1360 1 24.0 33.6 8.0
1361 3 25.6 32.0 6.4
1362 1 27.2 33.6 8.0
1363 2 28.8 32.0 6.4
1364 4 30.4 33.6 8.0
1365 4 32.0 32.0 6.4
1366 3 33.6 33.6 8.0
1367 4 35.2 32.0 6.4
1368 2 36.8 33.6 8.0
1369 4 38.4 32.0 6.4
1370 4 40.0 33.6 8.0
1371 1 41.6 32.0 6.4
1372 4 43.2 33.6 8.0
1373 1 44.8 32.0 6.4
1374 2 46.4 33.6 8.0
1375 4 48.0 32.0 6.4
1376 4 49.6 33.6 8.0
1377 4 0.0 35.2 6.4
1378 4 1.6 36.8 8.0
1379 1 3.2 35.2 6.4
1380 3 4.8 36.8 8.0
1381 1 6.4 35.2 6.4
1382 3 8.0 36.8 8.0
1383 4 9.6 35.2 6.4
1384 3 11.2 36.8 8.0
1385 4 12.8 35.2 6.4
1386 2 14.4 36.8 8.0
1387 1 16.0 35.2 6.4
1388 3 17.6 36.8 8.0
1389 4 19.2 35.2 6.4
1390 4 20.8 36.8 8.0
1391 4 22.4 35.2 6.4
1392 2 24.0 36.8 8.0
1393 2 25.6 35.2 6.4
1394 1 27.2 36.8 8.0
1395 4 28.8 35.2 6.4
1396 4 30.4 36.8 8.0
1397 2 32.0 35.2 6.4
1398 4 33.6 36.8 8.0
1399 2 35.2 35.2 6.4
1400 4 36.8 36.8 8.0
1401 3 38.4 35.2 6.4
1402 4 40.0 36.8 8.0
1403 4 41.6 35.2 6.4
1404 2 43.2 36.8 8.0
1405 1 44.8 35.2 6.4
1406 3 46.4 36.8 8.0
1407 1 48.0 35.2 6.4
1408 3 49.6 36.8 8.0
1409 1 0.0 38.4 6.4
1410 2 1.6 40.0 8.0
1411 1 3.2 38.4 6.4
1412 3 4.8 40.0 8.0
1413 1 6.4 38.4 6.4
1414 3 8.0 40.0 8.0
1415 1 9.6 38.4 6.4
1416 2 11.2 40.0 8.0
1417 1 12.8 38.4 6.4
1418 3 14.4 40.0 8.0
1419 1 16.0 38.4 6.4
1420 3 17.6 40.0 8.0
1421 4 19.2 38.4 6.4
1422 4 20.8 40.0 8.0
1423 4 22.4 38.4 6.4
1424 4 24.0 40.0 8.0
1425 4 25.6 38.4 6.4
1426 1 27.2 40.0 8.0
1427 3 28.8 38.4 6.4
1428 1 30.4 40.0 8.0
1429 2 32.0 38.4 6.4
1430 1 33.6 40.0 8.0
1431 2 35.2 38.4 6.4
1432 4 36.8 40.0 8.0
1433 2 38.4 38.4 6.4
1434 4 40.0 40.0 8.0
1435 4 41.6 38.4 6.4
1436 4 43.2 40.0 8.0
1437 4 44.8 38.4 6.4
1438 3 46.4 40.0 8.0
1439 1 48.0 38.4 6.4
1440 3 49.6 40.0 8.0
1441 1 0.0 41.6 6.4
1442 3 1.6 43.2 8.0
1443 1 3.2 41.6 6.4
1444 2 4.8 43.2 8.0
1445 4 6.4 41.6 6.4
1446 4 8.0 43.2 8.0
1447 4 9.6 41.6 6.4
1448 2 11.2 43.2 8.0
1449 1 12.8 41.6 6.4
1450 2 14.4 43.2 8.0
1451 1 16.0 41.6 6.4
1452 3 17.6 43.2 8.0
1453 1 19.2 41.6 6.4
1454 3 20.8 43.2 8.0
1455 4 22.4 41.6 6.4
1456 4 24.0 43.2 8.0
1457 3 25.6 41.6 6.4
1458 4 27.2 43.2 8.0
1459 4 28.8 41.6 6.4
1460 1 30.4 43.2 8.0
1461 3 32.0 41.6 6.4
1462 1 33.6 43.2 8.0
1463 2 35.2 41.6 6.4
1464 4 36.8 43.2 8.0
1465 4 38.4 41.6 6.4
1466 4 40.0 43.2 8.0
1467 3 41.6 41.6 6.4
1468 4 43.2 43.2 8.0
1469 1 44.8 41.6 6.4
1470 3 46.4 43.2 8.0
1471 1 48.0 41.6 6.4
1472 3 49.6 43.2 8.0
1473 4 0.0 44.8 6.4
1474 4 1.6 46.4 8.0
1475 1 3.2 44.8 6.4
1476 2 4.8 46.4 8.0
1477 4 6.4 44.8 6.4
1478 2 8.0 46.4 8.0
1479 1 9.6 44.8 6.4
1480 3 11.2 46.4 8.0
1481 1 12.8 44.8 6.4
1482 3 14.4 46.4 8.0
1483 1 16.0 44.8 6.4
1484 3 17.6 46.4 8.0
1485 1 19.2 44.8 6.4
1486 4 20.8 46.4 8.0
1487 4 22.4 44.8 6.4
1488 4 24.0 46.4 8.0
1489 4 25.6 44.8 6.4
1490 1 27.2 46.4 8.0
1491 3 28.8 44.8 6.4
1492 1 30.4 46.4 8.0
1493 3 32.0 44.8 6.4
1494 4 33.6 46.4 8.0
1495 2 35.2 44.8 6.4
1496 4 36.8 46.4 8.0
1497 3 38.4 44.8 6.4
1498 4 40.0 46.4 8.0
1499 4 41.6 44.8 6.4
1500 4 43.2 46.4 8.0