ITEM: TIMESTEP
0
ITEM: NUMBER OF ATOMS
8192
ITEM: BOX BOUNDS pp pp pp
0.0000000000000000e+00 5.1200000000000003e+01
0.0000000000000000e+00 5.1200000000000003e+01
0.0000000000000000e+00 5.1200000000000003e+01
ITEM: ATOMS id type x y z c_eng
1 1 0 0 0 -11.7396
2 2 1.6 1.6 1.6 -9.68588
3 1 3.2 0 0 -11.7202
4 4 4.8 1.6 1.6 -13.0589
5 1 6.4 0 0 -11.7142
6 2 8 1.6 1.6 -9.65654
7 1 9.6 0 0 -11.5769
8 2 11.2 1.6 1.6 -9.58668
9 4 12.8 0 0 -13.105
10 2 14.4 1.6 1.6 -9.65295
11 1 16 0 0 -11.7991
12 3 17.6 1.6 1.6 -11.1567
13 1 19.2 0 0 -11.7676
14 3 20.8 1.6 1.6 -11.1217
15 1 22.4 0 0 -11.6857
16 3 24 1.6 1.6 -11.157
17 4 25.6 0 0 -13.2315
18 4 27.2 1.6 1.6 -13.1828
19 3 28.8 0 0 -11.1431
20 4 30.4 1.6 1.6 -13.2038
21 4 32 0 0 -13.1913
22 4 33.6 1.6 1.6 -13.051
23 4 35.2 0 0 -13.0354
24 3 36.8 1.6 1.6 -11.1053
25 4 38.4 0 0 -13.2939
26 3 40 1.6 1.6 -11.2181
27 4 41.6 0 0 -13.1321
28 2 43.2 1.6 1.6 -9.69372
29 1 44.8 0 0 -11.6404
30 3 46.4 1.6 1.6 -11.0758
31 4 48 0 0 -13.2223
32 3 49.6 1.6 1.6 -11.1472
33 1 0 3.2 0 -11.7764
34 3 1.6 4.8 1.6 -11.2702
35 1 3.2 3.2 0 -11.7466
36 3 4.8 4.8 1.6 -11.1645
37 1 6.4 3.2 0 -11.7467
38 3 8 4.8 1.6 -11.1645
39 1 9.6 3.2 0 -11.735
40 3 11.2 4.8 1.6 -11.166
41 1 12.8 3.2 0 -11.7088
42 2 14.4 4.8 1.6 -9.61509
43 1 16 3.2 0 -11.7114
44 4 17.6 4.8 1.6 -13.0549
45 4 19.2 3.2 0 -13.2564
46 3 20.8 4.8 1.6 -11.0782
47 1 22.4 3.2 0 -11.7829
48 4 24 4.8 1.6 -13.2419
49 4 25.6 3.2 0 -13.2929
50 2 27.2 4.8 1.6 -9.76702
51 4 28.8 3.2 0 -13.3023
52 3 30.4 4.8 1.6 -11.1785
53 3 32 3.2 0 -11.159
54 4 33.6 4.8 1.6 -13.2199
55 1 35.2 3.2 0 -11.5992
56 2 36.8 4.8 1.6 -9.60482
57 4 38.4 3.2 0 -13.1922
58 4 40 4.8 1.6 -13.1645
59 4 41.6 3.2 0 -13.2671
60 3 43.2 4.8 1.6 -11.1958
61 1 44.8 3.2 0 -11.7592
62 3 46.4 4.8 1.6 -11.1621
63 1 48 3.2 0 -11.7535
64 2 49.6 4.8 1.6 -9.81039
65 4 0 6.4 0 -13.3606
66 3 1.6 8 1.6 -11.2351
67 1 3.2 6.4 0 -11.8557
68 3 4.8 8 1.6 -11.1645
69 1 6.4 6.4 0 -11.8417
70 3 8 8 1.6 -11.2411
71 1 9.6 6.4 0 -11.8414
72 3 11.2 8 1.6 -11.1595
73 1 12.8 6.4 0 -11.7965
74 2 14.4 8 1.6 -9.6569
75 1 16 6.4 0 -11.6737
76 2 17.6 8 1.6 -9.62132
77 1 19.2 6.4 0 -11.663
78 4 20.8 8 1.6 -13.0791
79 4 22.4 6.4 0 -13.1778
80 2 24 8 1.6 -9.60437
81 4 25.6 6.4 0 -13.1939
82 4 27.2 8 1.6 -13.2549
83 4 28.8 6.4 0 -13.3008
84 3 30.4 8 1.6 -11.2982
85 4 32 6.4 0 -13.2603
86 3 33.6 8 1.6 -11.1084
87 4 35.2 6.4 0 -13.1644
88 4 36.8 8 1.6 -13.316
89 4 38.4 6.4 0 -13.2568
90 3 40 8 1.6 -11.1734
91 4 41.6 6.4 0 -13.2688
92 3 43.2 8 1.6 -11.1882
93 1 44.8 6.4 0 -11.7139
94 4 46.4 8 1.6 -13.1212
95 4 48 6.4 0 -13.2379
96 3 49.6 8 1.6 -11.1113
97 1 0 9.6 0 -11.8279
98 3 1.6 11.2 1.6 -11.2026
99 1 3.2 9.6 0 -11.798
100 4 4.8 11.2 1.6 -13.1011
101 1 6.4 9.6 0 -11.718
102 2 8 11.2 1.6 -9.61853
103 1 9.6 9.6 0 -11.7833
104 2 11.2 11.2 1.6 -9.72275
105 4 12.8 9.6 0 -13.2753
106 4 14.4 11.2 1.6 -13.1913
107 4 16 9.6 0 -13.2948
108 3 17.6 11.2 1.6 -11.2611
109 4 19.2 9.6 0 -13.2194
110 3 20.8 11.2 1.6 -11.1113
111 4 22.4 9.6 0 -13.2048
112 4 24 11.2 1.6 -13.1129
113 4 25.6 9.6 0 -13.2036
114 3 27.2 11.2 1.6 -11.1011
115 3 28.8 9.6 0 -11.2788
116 3 30.4 11.2 1.6 -11.2548
117 4 32 9.6 0 -13.2482
118 4 33.6 11.2 1.6 -13.0388
119 4 35.2 9.6 0 -13.1998
120 2 36.8 11.2 1.6 -9.70331
121 4 38.4 9.6 0 -13.2844
122 4 40 11.2 1.6 -13.2006
123 4 41.6 9.6 0 -13.3186
124 3 43.2 11.2 1.6 -11.1947
125 4 44.8 9.6 0 -13.1098
126 2 46.4 11.2 1.6 -9.71443
127 1 48 9.6 0 -11.7124
128 3 49.6 11.2 1.6 -11.2054
129 1 0 12.8 0 -11.7978
130 3 1.6 14.4 1.6 -11.2389
131 4 3.2 12.8 0 -13.2865
132 3 4.8 14.4 1.6 -11.0679
133 1 6.4 12.8 0 -11.637
134 2 8 14.4 1.6 -9.65486
135 1 9.6 12.8 0 -11.6718
136 3 11.2 14.4 1.6 -11.1969
137 1 12.8 12.8 0 -11.761
138 3 14.4 14.4 1.6 -11.1047
139 4 16 12.8 0 -13.3561
140 2 17.6 14.4 1.6 -9.77748
141 4 19.2 12.8 0 -13.2859
142 2 20.8 14.4 1.6 -9.75558
143 4 22.4 12.8 0 -13.2089
144 3 24 14.4 1.6 -11.1048
145 1 25.6 12.8 0 -11.614
146 4 27.2 14.4 1.6 -13.0383
147 4 28.8 12.8 0 -13.3202
148 2 30.4 14.4 1.6 -9.73374
149 4 32 12.8 0 -13.1511
150 4 33.6 14.4 1.6 -13.1128
151 1 35.2 12.8 0 -11.6553
152 3 36.8 14.4 1.6 -11.2971
153 1 38.4 12.8 0 -11.7425
154 3 40 14.4 1.6 -11.2318
155 4 41.6 12.8 0 -13.2227
156 3 43.2 14.4 1.6 -11.2746
157 1 44.8 12.8 0 -11.7583
158 3 46.4 14.4 1.6 -11.2042
159 1 48 12.8 0 -11.8122
160 3 49.6 14.4 1.6 -11.165
161 1 0 16 0 -11.7117
162 3 1.6 17.6 1.6 -11.1591
163 4 3.2 16 0 -13.2398
164 2 4.8 17.6 1.6 -9.68739
165 1 6.4 16 0 -11.6676
166 2 8 17.6 1.6 -9.63082
167 4 9.6 16 0 -13.2164
168 4 11.2 17.6 1.6 -13.2489
169 4 12.8 16 0 -13.2699
170 2 14.4 17.6 1.6 -9.73197
171 4 16 16 0 -13.2533
172 3 17.6 17.6 1.6 -11.0369
173 1 19.2 16 0 -11.7021
174 2 20.8 17.6 1.6 -9.73323
175 4 22.4 16 0 -13.2237
176 2 24 17.6 1.6 -9.7906
177 1 25.6 16 0 -11.6504
178 4 27.2 17.6 1.6 -13.0379
179 4 28.8 16 0 -13.0751
180 4 30.4 17.6 1.6 -13.0359
181 4 32 16 0 -13.2637
182 3 33.6 17.6 1.6 -11.2628
183 4 35.2 16 0 -13.3031
184 3 36.8 17.6 1.6 -11.1833
185 1 38.4 16 0 -11.7569
186 4 40 17.6 1.6 -13.1988
187 1 41.6 16 0 -11.7826
188 3 43.2 17.6 1.6 -11.2023
189 1 44.8 16 0 -11.8122
190 3 46.4 17.6 1.6 -11.2051
191 1 48 16 0 -11.7802
192 3 49.6 17.6 1.6 -11.124
193 4 0 19.2 0 -13.1427
194 4 1.6 20.8 1.6 -13.1184
195 4 3.2 19.2 0 -13.1684
196 2 4.8 20.8 1.6 -9.60172
197 1 6.4 19.2 0 -11.62
198 4 8 20.8 1.6 -13.0439
199 4 9.6 19.2 0 -13.1919
200 4 11.2 20.8 1.6 -13.2171
201 2 12.8 19.2 0 -9.73994
202 1 14.4 20.8 1.6 -11.694
203 1 16 19.2 0 -11.5735
204 4 17.6 20.8 1.6 -13.1477
205 4 19.2 19.2 0 -13.0971
206 3 20.8 20.8 1.6 -11.137
207 4 22.4 19.2 0 -13.2941
208 4 24 20.8 1.6 -13.1264
209 4 25.6 19.2 0 -13.1712
210 3 27.2 20.8 1.6 -11.1784
211 4 28.8 19.2 0 -13.1209
212 2 30.4 20.8 1.6 -9.67451
213 1 32 19.2 0 -11.6349
214 3 33.6 20.8 1.6 -11.2249
215 1 35.2 19.2 0 -11.7553
216 3 36.8 20.8 1.6 -11.2625
217 1 38.4 19.2 0 -11.6735
218 3 40 20.8 1.6 -11.0333
219 1 41.6 19.2 0 -11.7245
220 3 43.2 20.8 1.6 -11.1249
221 1 44.8 19.2 0 -11.7469
222 2 46.4 20.8 1.6 -9.688
223 1 48 19.2 0 -11.6406
224 4 49.6 20.8 1.6 -13.1187
225 4 0 22.4 0 -13.1726
226 3 1.6 24 1.6 -11.1046
227 4 3.2 22.4 0 -13.2427
228 4 4.8 24 1.6 -13.2273
229 4 6.4 22.4 0 -13.1277
230 4 8 24 1.6 -13.1151
231 4 9.6 22.4 0 -13.1332
232 4 11.2 24 1.6 -13.2143
233 3 12.8 22.4 0 -11.145
234 1 14.4 24 1.6 -11.7971
235 3 16 22.4 0 -11.0789
236 1 17.6 24 1.6 -11.6763
237 4 19.2 22.4 0 -13.151
238 4 20.8 24 1.6 -13.1586
239 4 22.4 22.4 0 -13.1489
240 4 24 24 1.6 -13.1592
241 4 25.6 22.4 0 -13.2121
242 3 27.2 24 1.6 -11.1641
243 4 28.8 22.4 0 -13.2111
244 4 30.4 24 1.6 -13.2019
245 4 32 22.4 0 -13.2304
246 3 33.6 24 1.6 -11.206
247 4 35.2 22.4 0 -13.2411
248 4 36.8 24 1.6 -13.2354
249 1 38.4 22.4 0 -11.7276
250 2 40 24 1.6 -9.63332
251 1 41.6 22.4 0 -11.7052
252 4 43.2 24 1.6 -13.0702
253 1 44.8 22.4 0 -11.7215
254 3 46.4 24 1.6 -11.189
255 4 48 22.4 0 -13.2122
256 3 49.6 24 1.6 -11.1084
257 1 0 25.6 0 -11.5965
259 4 3.2 25.6 0 -13.2704
261 4 6.4 25.6 0 -13.1494
263 4 9.6 25.6 0 -13.0473
265 4 12.8 25.6 0 -13.0798
267 3 16 25.6 0 -11.1656
269 2 19.2 25.6 0 -9.6259
271 2 22.4 25.6 0 -9.76445
273 4 25.6 25.6 0 -13.258
275 4 28.8 25.6 0 -13.1581
277 4 32 25.6 0 -13.1608
279 4 35.2 25.6 0 -13.2073
281 4 38.4 25.6 0 -13.2482
283 4 41.6 25.6 0 -13.2381
285 4 44.8 25.6 0 -13.2551
287 1 48 25.6 0 -11.6323
258 3 1.6 27.2 1.6 -11.1966
289 4 0 28.8 0 -13.1904
260 4 4.8 27.2 1.6 -13.2042
291 3 3.2 28.8 0 -11.1331
262 1 8 27.2 1.6 -11.6971
293 2 6.4 28.8 0 -9.64081
264 1 11.2 27.2 1.6 -11.7433
295 3 9.6 28.8 0 -11.1208
266 1 14.4 27.2 1.6 -11.7975
297 3 12.8 28.8 0 -11.2361
268 1 17.6 27.2 1.6 -11.7542
299 3 16 28.8 0 -11.3393
270 4 20.8 27.2 1.6 -13.246
301 3 19.2 28.8 0 -11.2276
272 1 24 27.2 1.6 -11.6949
303 3 22.4 28.8 0 -11.2587
305 3 25.6 28.8 0 -11.0993
274 1 27.2 27.2 1.6 -11.677
307 4 28.8 28.8 0 -13.2709
276 4 30.4 27.2 1.6 -13.1128
309 4 32 28.8 0 -13.1926
278 4 33.6 27.2 1.6 -13.1575
311 1 35.2 28.8 0 -11.6683
280 2 36.8 27.2 1.6 -9.64
313 1 38.4 28.8 0 -11.6925
282 4 40 27.2 1.6 -13.1191
315 4 41.6 28.8 0 -13.2702
284 4 43.2 27.2 1.6 -13.0707
317 4 44.8 28.8 0 -13.2978
286 4 46.4 27.2 1.6 -13.1189
319 4 48 28.8 0 -13.2078
288 4 49.6 27.2 1.6 -13.1144
290 4 1.6 30.4 1.6 -13.3726
321 2 0 32 0 -9.69765
292 1 4.8 30.4 1.6 -11.656
323 2 3.2 32 0 -9.75753
294 1 8 30.4 1.6 -11.7208
325 4 6.4 32 0 -13.1146
296 1 11.2 30.4 1.6 -11.7973
327 3 9.6 32 0 -11.2341
298 1 14.4 30.4 1.6 -11.7928
329 3 12.8 32 0 -11.1961
300 1 17.6 30.4 1.6 -11.8139
331 3 16 32 0 -11.3331
302 4 20.8 30.4 1.6 -13.2655
333 3 19.2 32 0 -11.1768
304 4 24 30.4 1.6 -13.2647
335 4 22.4 32 0 -13.2305
337 4 25.6 32 0 -13.2693
306 4 27.2 30.4 1.6 -13.2498
339 4 28.8 32 0 -13.1261
308 4 30.4 30.4 1.6 -13.102
341 1 32 32 0 -11.637
310 2 33.6 30.4 1.6 -9.67815
343 4 35.2 32 0 -13.2627
312 4 36.8 30.4 1.6 -13.1566
345 4 38.4 32 0 -13.2929
314 3 40 30.4 1.6 -11.1017
347 4 41.6 32 0 -13.333
316 3 43.2 30.4 1.6 -11.1876
349 4 44.8 32 0 -13.3287
318 3 46.4 30.4 1.6 -11.2952
351 4 48 32 0 -13.2784
320 3 49.6 30.4 1.6 -11.1634
322 4 1.6 33.6 1.6 -13.3085
353 3 0 35.2 0 -11.1709
324 1 4.8 33.6 1.6 -11.6542
355 3 3.2 35.2 0 -11.1813
326 4 8 33.6 1.6 -13.2046
357 4 6.4 35.2 0 -13.1615
328 1 11.2 33.6 1.6 -11.7167
359 3 9.6 35.2 0 -11.1393
330 1 14.4 33.6 1.6 -11.6361
361 3 12.8 35.2 0 -11.1793
332 4 17.6 33.6 1.6 -13.2472
363 4 16 35.2 0 -13.1624
334 4 20.8 33.6 1.6 -13.1804
365 4 19.2 35.2 0 -13.1323
336 4 24 33.6 1.6 -13.26
367 1 22.4 35.2 0 -11.6842
369 4 25.6 35.2 0 -13.2104
338 2 27.2 33.6 1.6 -9.78689
371 4 28.8 35.2 0 -13.2313
340 4 30.4 33.6 1.6 -13.0446
373 1 32 35.2 0 -11.6306
342 4 33.6 33.6 1.6 -13.163
375 4 35.2 35.2 0 -13.2659
344 3 36.8 33.6 1.6 -11.1666
377 4 38.4 35.2 0 -13.2965
346 2 40 33.6 1.6 -9.81622
379 4 41.6 35.2 0 -13.3251
348 3 43.2 33.6 1.6 -11.2519
381 3 44.8 35.2 0 -11.2931
350 4 46.4 33.6 1.6 -13.196
383 4 48 35.2 0 -13.2772
352 4 49.6 33.6 1.6 -13.1798
354 4 1.6 36.8 1.6 -13.1416
385 1 0 38.4 0 -11.6525
356 4 4.8 36.8 1.6 -13.1777
387 4 3.2 38.4 0 -13.2591
358 4 8 36.8 1.6 -13.1685
389 3 6.4 38.4 0 -11.0749
360 4 11.2 36.8 1.6 -13.1746
391 4 9.6 38.4 0 -13.188
362 4 14.4 36.8 1.6 -13.1642
393 1 12.8 38.4 0 -11.6307
364 3 17.6 36.8 1.6 -11.1466
395 1 16 38.4 0 -11.6492
366 2 20.8 36.8 1.6 -9.78436
397 1 19.2 38.4 0 -11.7577
368 3 24 36.8 1.6 -11.1076
399 1 22.4 38.4 0 -11.7547
401 1 25.6 38.4 0 -11.6218
370 4 27.2 36.8 1.6 -13.1495
403 4 28.8 38.4 0 -13.1414
372 4 30.4 36.8 1.6 -13.2021
405 4 32 38.4 0 -13.1875
374 4 33.6 36.8 1.6 -13.11
407 4 35.2 38.4 0 -13.2485
376 2 36.8 36.8 1.6 -9.8175
409 4 38.4 38.4 0 -13.2501
378 4 40 36.8 1.6 -13.1742
411 4 41.6 38.4 0 -13.1134
380 4 43.2 36.8 1.6 -13.3729
413 4 44.8 38.4 0 -13.2923
382 3 46.4 36.8 1.6 -11.2338
415 1 48 38.4 0 -11.718
384 2 49.6 36.8 1.6 -9.79458
386 2 1.6 40 1.6 -9.62611
417 1 0 41.6 0 -11.7173
388 4 4.8 40 1.6 -13.1776
419 1 3.2 41.6 0 -11.7297
390 4 8 40 1.6 -13.1158
421 4 6.4 41.6 0 -13.2564
392 3 11.2 40 1.6 -11.0407
423 1 9.6 41.6 0 -11.6621
394 3 14.4 40 1.6 -11.1537
425 1 12.8 41.6 0 -11.6943
396 3 17.6 40 1.6 -11.2361
427 1 16 41.6 0 -11.7213
398 3 20.8 40 1.6 -11.1604
429 1 19.2 41.6 0 -11.7464
400 4 24 40 1.6 -13.2124
431 1 22.4 41.6 0 -11.7577
433 4 25.6 41.6 0 -13.2281
402 4 27.2 40 1.6 -13.0531
435 4 28.8 41.6 0 -13.2247
404 4 30.4 40 1.6 -13.1831
437 4 32 41.6 0 -13.1481
406 4 33.6 40 1.6 -13.143
439 4 35.2 41.6 0 -13.0777
408 4 36.8 40 1.6 -13.3252
441 4 38.4 41.6 0 -13.0742
410 4 40 40 1.6 -13.1894
443 2 41.6 41.6 0 -9.60683
412 4 43.2 40 1.6 -13.146
445 4 44.8 41.6 0 -13.0814
414 4 46.4 40 1.6 -13.1493
447 1 48 41.6 0 -11.6258
416 2 49.6 40 1.6 -9.65705
418 3 1.6 43.2 1.6 -11.2378
449 1 0 44.8 0 -11.8258
420 2 4.8 43.2 1.6 -9.69014
451 1 3.2 44.8 0 -11.812
422 3 8 43.2 1.6 -11.0815
453 1 6.4 44.8 0 -11.8282
424 4 11.2 43.2 1.6 -13.0636
455 1 9.6 44.8 0 -11.766
426 3 14.4 43.2 1.6 -11.1074
457 4 12.8 44.8 0 -13.2739
428 4 17.6 43.2 1.6 -13.1068
459 4 16 44.8 0 -13.2591
430 2 20.8 43.2 1.6 -9.6556
461 1 19.2 44.8 0 -11.7243
432 2 24 43.2 1.6 -9.70128
463 1 22.4 44.8 0 -11.7571
465 4 25.6 44.8 0 -13.196
434 4 27.2 43.2 1.6 -13.1383
467 4 28.8 44.8 0 -13.2065
436 4 30.4 43.2 1.6 -13.1642
469 3 32 44.8 0 -11.1478
438 4 33.6 43.2 1.6 -13.1449
471 4 35.2 44.8 0 -13.0835
440 1 36.8 43.2 1.6 -11.6365
473 2 38.4 44.8 0 -9.63155
442 1 40 43.2 1.6 -11.668
475 4 41.6 44.8 0 -13.0846
444 4 43.2 43.2 1.6 -13.1629
477 1 44.8 44.8 0 -11.6243
446 2 46.4 43.2 1.6 -9.65991
479 1 48 44.8 0 -11.6885
448 3 49.6 43.2 1.6 -11.1199
450 3 1.6 46.4 1.6 -11.2773
481 1 0 48 0 -11.7875
452 3 4.8 46.4 1.6 -11.2016
483 1 3.2 48 0 -11.8122
454 3 8 46.4 1.6 -11.164
485 1 6.4 48 0 -11.8
456 3 11.2 46.4 1.6 -11.1199
487 1 9.6 48 0 -11.7005
458 4 14.4 46.4 1.6 -13.2345
489 4 12.8 48 0 -13.2329
460 3 17.6 46.4 1.6 -11.2244
491 4 16 48 0 -13.3241
462 3 20.8 46.4 1.6 -11.1594
493 4 19.2 48 0 -13.3542
464 2 24 46.4 1.6 -9.79608
495 4 22.4 48 0 -13.2342
497 4 25.6 48 0 -13.1898
466 1 27.2 46.4 1.6 -11.6176
499 3 28.8 48 0 -11.1968
468 1 30.4 46.4 1.6 -11.7475
501 3 32 48 0 -11.2383
470 1 33.6 46.4 1.6 -11.7691
503 3 35.2 48 0 -11.1152
472 4 36.8 46.4 1.6 -13.2118
505 3 38.4 48 0 -11.0192
474 4 40 46.4 1.6 -13.1393
507 1 41.6 48 0 -11.4985
476 4 43.2 46.4 1.6 -13.1098
509 4 44.8 48 0 -13.1639
478 3 46.4 46.4 1.6 -11.0641
511 4 48 48 0 -13.2744
480 3 49.6 46.4 1.6 -11.2337
482 3 1.6 49.6 1.6 -11.0814
484 3 4.8 49.6 1.6 -11.1557
486 2 8 49.6 1.6 -9.71402
488 4 11.2 49.6 1.6 -12.9796
490 2 14.4 49.6 1.6 -9.66016
492 3 17.6 49.6 1.6 -11.3034
494 2 20.8 49.6 1.6 -9.72089
496 4 24 49.6 1.6 -13.1037
498 4 27.2 49.6 1.6 -13.211
500 1 30.4 49.6 1.6 -11.7593
502 1 33.6 49.6 1.6 -11.6734
504 4 36.8 49.6 1.6 -13.2408
506 4 40 49.6 1.6 -13.1877
508 4 43.2 49.6 1.6 -12.906
510 4 46.4 49.6 1.6 -13.2016
512 4 49.6 49.6 1.6 -13.1704
513 4 0 0 3.2 -13.1341
514 4 1.6 1.6 4.8 -13.1599
515 1 3.2 0 3.2 -11.6766
516 3 4.8 1.6 4.8 -11.1583
517 4 6.4 0 3.2 -13.2728
518 3 8 1.6 4.8 -11.1986
519 1 9.6 0 3.2 -11.711
520 3 11.2 1.6 4.8 -11.1977
521 1 12.8 0 3.2 -11.6308
522 2 14.4 1.6 4.8 -9.65862
523 1 16 0 3.2 -11.7131
524 3 17.6 1.6 4.8 -11.2019
525 4 19.2 0 3.2 -13.2444
526 4 20.8 1.6 4.8 -13.1622
527 1 22.4 0 3.2 -11.6107
528 3 24 1.6 4.8 -11.1509
529 4 25.6 0 3.2 -13.2321
530 2 27.2 1.6 4.8 -9.76713
531 4 28.8 0 3.2 -13.2173
532 4 30.4 1.6 4.8 -13.1833
533 2 32 0 3.2 -9.66929
534 1 33.6 1.6 4.8 -11.587
535 4 35.2 0 3.2 -13.1194
536 2 36.8 1.6 4.8 -9.60203
537 4 38.4 0 3.2 -13.264
538 2 40 1.6 4.8 -9.72786
539 4 41.6 0 3.2 -13.1936
540 4 43.2 1.6 4.8 -13.1221
541 1 44.8 0 3.2 -11.6247
542 4 46.4 1.6 4.8 -13.1713
543 4 48 0 3.2 -13.2519
544 3 49.6 1.6 4.8 -11.0565
545 4 0 3.2 3.2 -13.2787
546 3 1.6 4.8 4.8 -11.1555
547 1 3.2 3.2 3.2 -11.7049
548 3 4.8 4.8 4.8 -11.2054
549 1 6.4 3.2 3.2 -11.738
550 2 8 4.8 4.8 -9.74243
551 1 9.6 3.2 3.2 -11.7525
552 3 11.2 4.8 4.8 -11.232
553 1 12.8 3.2 3.2 -11.7364
554 3 14.4 4.8 4.8 -11.1971
555 1 16 3.2 3.2 -11.6872
556 3 17.6 4.8 4.8 -11.0865
557 1 19.2 3.2 3.2 -11.7512
558 3 20.8 4.8 4.8 -11.1662
559 1 22.4 3.2 3.2 -11.7336
560 3 24 4.8 4.8 -11.2335
561 4 25.6 3.2 3.2 -13.2729
562 3 27.2 4.8 4.8 -11.2952
563 1 28.8 3.2 3.2 -11.655
564 2 30.4 4.8 4.8 -9.75998
565 4 32 3.2 3.2 -13.1748
566 3 33.6 4.8 4.8 -10.982
567 1 35.2 3.2 3.2 -11.5761
568 4 36.8 4.8 4.8 -13.1146
569 1 38.4 3.2 3.2 -11.6448
570 2 40 4.8 4.8 -9.62574
571 1 41.6 3.2 3.2 -11.681
572 3 43.2 4.8 4.8 -11.1076
573 1 44.8 3.2 3.2 -11.6837
574 2 46.4 4.8 4.8 -9.72531
575 1 48 3.2 3.2 -11.7088
576 4 49.6 4.8 4.8 -13.1177
577 4 0 6.4 3.2 -13.2284
578 4 1.6 8 4.8 -13.1213
579 1 3.2 6.4 3.2 -11.7977
580 3 4.8 8 4.8 -11.1651
581 1 6.4 6.4 3.2 -11.8122
582 3 8 8 4.8 -11.2011
583 1 9.6 6.4 3.2 -11.7902
584 4 11.2 8 4.8 -13.1158
585 1 12.8 6.4 3.2 -11.7058
586 2 14.4 8 4.8 -9.65437
587 1 16 6.4 3.2 -11.6538
588 3 17.6 8 4.8 -11.166
589 1 19.2 6.4 3.2 -11.6864
590 3 20.8 8 4.8 -11.1651
591 1 22.4 6.4 3.2 -11.7281
592 3 24 8 4.8 -11.2346
593 4 25.6 6.4 3.2 -13.2593
594 3 27.2 8 4.8 -11.2316
595 1 28.8 6.4 3.2 -11.7696
596 3 30.4 8 4.8 -11.2408
597 1 32 6.4 3.2 -11.8057
598 3 33.6 8 4.8 -11.2406
599 4 35.2 6.4 3.2 -13.23
600 3 36.8 8 4.8 -11.1176
601 4 38.4 6.4 3.2 -13.1529
602 4 40 8 4.8 -13.0773
603 1 41.6 6.4 3.2 -11.7125
604 4 43.2 8 4.8 -13.2013
605 4 44.8 6.4 3.2 -13.2646
606 3 46.4 8 4.8 -11.071
607 1 48 6.4 3.2 -11.6769
608 4 49.6 8 4.8 -13.0906
609 1 0 9.6 3.2 -11.7532
610 3 1.6 11.2 4.8 -11.1994
611 1 3.2 9.6 3.2 -11.7175
612 3 4.8 11.2 4.8 -11.0387
613 1 6.4 9.6 3.2 -11.7621
614 3 8 11.2 4.8 -11.2422
615 4 9.6 9.6 3.2 -13.2605
616 3 11.2 11.2 4.8 -11.081
617 1 12.8 9.6 3.2 -11.6619
618 3 14.4 11.2 4.8 -11.0827
619 1 16 9.6 3.2 -11.7277
620 3 17.6 11.2 4.8 -11.2409
621 1 19.2 9.6 3.2 -11.7659
622 3 20.8 11.2 4.8 -11.1626
623 1 22.4 9.6 3.2 -11.6763
624 2 24 11.2 4.8 -9.67734
625 1 25.6 9.6 3.2 -11.6942
626 3 27.2 11.2 4.8 -11.2054
627 1 28.8 9.6 3.2 -11.8267
628 3 30.4 11.2 4.8 -11.2054
629 1 32 9.6 3.2 -11.7631
630 2 33.6 11.2 4.8 -9.65365
631 1 35.2 9.6 3.2 -11.7302
632 3 36.8 11.2 4.8 -11.1126
633 4 38.4 9.6 3.2 -13.216
634 4 40 11.2 4.8 -13.082
635 4 41.6 9.6 3.2 -13.172
636 3 43.2 11.2 4.8 -11.1237
637 1 44.8 9.6 3.2 -11.7457
638 3 46.4 11.2 4.8 -11.1661
639 1 48 9.6 3.2 -11.6897
640 3 49.6 11.2 4.8 -11.1188
641 1 0 12.8 3.2 -11.7977
642 3 1.6 14.4 4.8 -11.1241
643 1 3.2 12.8 3.2 -11.7414
644 4 4.8 14.4 4.8 -13.0984
645 1 6.4 12.8 3.2 -11.6648
646 3 8 14.4 4.8 -11.0805
647 1 9.6 12.8 3.2 -11.7682
648 3 11.2 14.4 4.8 -11.1632
649 1 12.8 12.8 3.2 -11.7273
650 4 14.4 14.4 4.8 -13.0237
651 4 16 12.8 3.2 -13.1908
652 4 17.6 14.4 4.8 -13.0667
653 1 19.2 12.8 3.2 -11.7704
654 3 20.8 14.4 4.8 -11.1155
655 1 22.4 12.8 3.2 -11.7531
656 3 24 14.4 4.8 -11.2715
657 1 25.6 12.8 3.2 -11.7066
658 3 27.2 14.4 4.8 -11.2031
659 1 28.8 12.8 3.2 -11.7655
660 3 30.4 14.4 4.8 -11.0805
661 1 32 12.8 3.2 -11.6523
662 4 33.6 14.4 4.8 -13.1584
663 4 35.2 12.8 3.2 -13.152
664 3 36.8 14.4 4.8 -11.2619
665 4 38.4 12.8 3.2 -13.2825
666 3 40 14.4 4.8 -11.191
667 1 41.6 12.8 3.2 -11.7815
668 3 43.2 14.4 4.8 -11.2767
669 1 44.8 12.8 3.2 -11.8119
670 3 46.4 14.4 4.8 -11.2003
671 1 48 12.8 3.2 -11.7677
672 4 49.6 14.4 4.8 -13.2316
673 1 0 16 3.2 -11.7799
674 3 1.6 17.6 4.8 -11.2042
675 1 3.2 16 3.2 -11.7686
676 3 4.8 17.6 4.8 -11.0763
677 1 6.4 16 3.2 -11.6685
678 2 8 17.6 4.8 -9.6861
679 1 9.6 16 3.2 -11.7479
680 3 11.2 17.6 4.8 -11.1518
681 4 12.8 16 3.2 -13.2457
682 4 14.4 17.6 4.8 -13.0764
683 1 16 16 3.2 -11.643
684 3 17.6 17.6 4.8 -10.9486
685 1 19.2 16 3.2 -11.6485
686 4 20.8 17.6 4.8 -13.2002
687 4 22.4 16 3.2 -13.3003
688 3 24 17.6 4.8 -11.1532
689 4 25.6 16 3.2 -13.2341
690 3 27.2 17.6 4.8 -11.204
691 1 28.8 16 3.2 -11.6758
692 3 30.4 17.6 4.8 -11.1211
693 4 32 16 3.2 -13.2176
694 3 33.6 17.6 4.8 -11.1896
695 4 35.2 16 3.2 -13.3514
696 4 36.8 17.6 4.8 -13.2701
697 4 38.4 16 3.2 -13.3215
698 2 40 17.6 4.8 -9.63194
699 4 41.6 16 3.2 -13.3076
700 3 43.2 17.6 4.8 -11.2759
701 1 44.8 16 3.2 -11.8557
702 3 46.4 17.6 4.8 -11.277
703 1 48 16 3.2 -11.7979
704 3 49.6 17.6 4.8 -11.2026
705 1 0 19.2 3.2 -11.7318
706 3 1.6 20.8 4.8 -11.0328
707 1 3.2 19.2 3.2 -11.7256
708 2 4.8 20.8 4.8 -9.72365
709 1 6.4 19.2 3.2 -11.637
710 2 8 20.8 4.8 -9.59854
711 4 9.6 19.2 3.2 -13.1362
712 4 11.2 20.8 4.8 -13.1876
713 2 12.8 19.2 3.2 -9.76539
714 4 14.4 20.8 4.8 -13.1207
715 1 16 19.2 3.2 -11.57
716 4 17.6 20.8 4.8 -13.1615
717 1 19.2 19.2 3.2 -11.6967
718 3 20.8 20.8 4.8 -11.1109
719 4 22.4 19.2 3.2 -13.2109
720 4 24 20.8 4.8 -13.1398
721 1 25.6 19.2 3.2 -11.6994
722 3 27.2 20.8 4.8 -11.1563
723 1 28.8 19.2 3.2 -11.6571
724 4 30.4 20.8 4.8 -13.0694
725 1 32 19.2 3.2 -11.6706
726 4 33.6 20.8 4.8 -13.1512
727 4 35.2 19.2 3.2 -13.3306
728 2 36.8 20.8 4.8 -9.70347
729 4 38.4 19.2 3.2 -13.2053
730 4 40 20.8 4.8 -13.1165
731 1 41.6 19.2 3.2 -11.7466
732 3 43.2 20.8 4.8 -11.2034
733 1 44.8 19.2 3.2 -11.8121
734 3 46.4 20.8 4.8 -11.1626
735 1 48 19.2 3.2 -11.7662
736 3 49.6 20.8 4.8 -11.1242
737 1 0 22.4 3.2 -11.6461
738 4 1.6 24 4.8 -13.0403
739 1 3.2 22.4 3.2 -11.6178
740 4 4.8 24 4.8 -13.0759
741 4 6.4 22.4 3.2 -13.0902
742 4 8 24 4.8 -13.1907
743 4 9.6 22.4 3.2 -13.1058
744 1 11.2 24 4.8 -11.6449
745 3 12.8 22.4 3.2 -11.2326
746 1 14.4 24 4.8 -11.769
747 3 16 22.4 3.2 -11.1586
748 4 17.6 24 4.8 -13.1572
749 4 19.2 22.4 3.2 -13.1268
750 4 20.8 24 4.8 -13.1612
751 4 22.4 22.4 3.2 -13.1857
752 1 24 24 4.8 -11.5646
753 4 25.6 22.4 3.2 -13.1808
754 4 27.2 24 4.8 -13.263
755 4 28.8 22.4 3.2 -13.2655
756 2 30.4 24 4.8 -9.70817
757 4 32 22.4 3.2 -13.2204
758 3 33.6 24 4.8 -11.2275
759 4 35.2 22.4 3.2 -13.3183
760 2 36.8 24 4.8 -9.75855
761 4 38.4 22.4 3.2 -13.1717
762 2 40 24 4.8 -9.62658
763 1 41.6 22.4 3.2 -11.6745
764 3 43.2 24 4.8 -11.1247
765 1 44.8 22.4 3.2 -11.7686
766 3 46.4 24 4.8 -11.2
767 4 48 22.4 3.2 -13.2805
768 4 49.6 24 4.8 -13.1071
769 4 0 25.6 3.2 -13.1714
771 4 3.2 25.6 3.2 -13.1901
773 3 6.4 25.6 3.2 -11.0578
775 3 9.6 25.6 3.2 -11.2264
777 3 12.8 25.6 3.2 -11.163
779 3 16 25.6 3.2 -11.2399
781 4 19.2 25.6 3.2 -13.1223
783 3 22.4 25.6 3.2 -11.1083
785 2 25.6 25.6 3.2 -9.67195
787 4 28.8 25.6 3.2 -13.2692
789 4 32 25.6 3.2 -13.2224
791 4 35.2 25.6 3.2 -13.2947
793 1 38.4 25.6 3.2 -11.6697
795 1 41.6 25.6 3.2 -11.6298
797 1 44.8 25.6 3.2 -11.6567
799 4 48 25.6 3.2 -13.2075
770 4 1.6 27.2 4.8 -13.175
801 4 0 28.8 3.2 -13.2397
772 1 4.8 27.2 4.8 -11.6342
803 2 3.2 28.8 3.2 -9.78341
774 4 8 27.2 4.8 -13.2546
805 4 6.4 28.8 3.2 -13.1126
776 4 11.2 27.2 4.8 -13.2685
807 3 9.6 28.8 3.2 -11.1956
778 1 14.4 27.2 4.8 -11.7438
809 3 12.8 28.8 3.2 -11.1984
780 4 17.6 27.2 4.8 -13.2421
811 3 16 28.8 3.2 -11.2016
782 4 20.8 27.2 4.8 -13.1687
813 2 19.2 28.8 3.2 -9.73706
784 1 24 27.2 4.8 -11.6189
815 4 22.4 28.8 3.2 -13.1604
817 2 25.6 28.8 3.2 -9.75521
786 4 27.2 27.2 4.8 -13.2078
819 3 28.8 28.8 3.2 -11.1011
788 4 30.4 27.2 4.8 -13.3014
821 4 32 28.8 3.2 -13.2299
790 3 33.6 27.2 4.8 -11.2197
823 4 35.2 28.8 3.2 -13.2163
792 3 36.8 27.2 4.8 -11.1885
825 1 38.4 28.8 3.2 -11.6667
794 3 40 27.2 4.8 -11.1944
827 4 41.6 28.8 3.2 -13.1943
796 3 43.2 27.2 4.8 -11.0799
829 1 44.8 28.8 3.2 -11.6826
798 2 46.4 27.2 4.8 -9.75299
831 4 48 28.8 3.2 -13.2635
800 2 49.6 27.2 4.8 -9.63631
802 2 1.6 30.4 4.8 -9.7819
833 4 0 32 3.2 -13.3237
804 1 4.8 30.4 4.8 -11.6679
835 3 3.2 32 3.2 -11.2117
806 1 8 30.4 4.8 -11.6754
837 3 6.4 32 3.2 -11.0311
808 4 11.2 30.4 4.8 -13.3134
839 3 9.6 32 3.2 -11.154
810 1 14.4 30.4 4.8 -11.7391
841 4 12.8 32 3.2 -13.1077
812 4 17.6 30.4 4.8 -13.2402
843 3 16 32 3.2 -11.117
814 4 20.8 30.4 4.8 -13.2506
845 4 19.2 32 3.2 -13.2615
816 4 24 30.4 4.8 -13.1966
847 2 22.4 32 3.2 -9.81459
849 3 25.6 32 3.2 -11.1283
818 1 27.2 30.4 4.8 -11.7381
851 4 28.8 32 3.2 -13.2097
820 4 30.4 30.4 4.8 -13.1613
853 1 32 32 3.2 -11.5832
822 3 33.6 30.4 4.8 -11.188
855 4 35.2 32 3.2 -13.2412
824 4 36.8 30.4 4.8 -13.2067
857 4 38.4 32 3.2 -13.2026
826 2 40 30.4 4.8 -9.63591
859 1 41.6 32 3.2 -11.6882
828 4 43.2 30.4 4.8 -13.1562
861 1 44.8 32 3.2 -11.7289
830 3 46.4 30.4 4.8 -11.1125
863 4 48 32 3.2 -13.159
832 4 49.6 30.4 4.8 -13.241
834 3 1.6 33.6 4.8 -11.2408
865 4 0 35.2 3.2 -13.2153
836 4 4.8 33.6 4.8 -13.2361
867 4 3.2 35.2 3.2 -13.274
838 4 8 33.6 4.8 -13.2452
869 4 6.4 35.2 3.2 -13.1582
840 4 11.2 33.6 4.8 -13.14
871 4 9.6 35.2 3.2 -13.2205
842 1 14.4 33.6 4.8 -11.6142
873 4 12.8 35.2 3.2 -13.0787
844 4 17.6 33.6 4.8 -13.2065
875 4 16 35.2 3.2 -13.1964
846 3 20.8 33.6 4.8 -11.1965
877 4 19.2 35.2 3.2 -13.2669
848 4 24 33.6 4.8 -13.2847
879 4 22.4 35.2 3.2 -13.2843
881 4 25.6 35.2 3.2 -13.2587
850 4 27.2 33.6 4.8 -13.233
883 3 28.8 35.2 3.2 -11.1792
852 4 30.4 33.6 4.8 -13.1962
885 2 32 35.2 3.2 -9.68043
854 3 33.6 33.6 4.8 -11.0645
887 4 35.2 35.2 3.2 -13.226
856 2 36.8 33.6 4.8 -9.76734
889 4 38.4 35.2 3.2 -13.2695
858 1 40 33.6 4.8 -11.591
891 4 41.6 35.2 3.2 -13.1589
860 3 43.2 33.6 4.8 -11.0197
893 4 44.8 35.2 3.2 -13.2907
862 4 46.4 33.6 4.8 -13.044
895 1 48 35.2 3.2 -11.6432
864 2 49.6 33.6 4.8 -9.72881
866 4 1.6 36.8 4.8 -13.2053
897 1 0 38.4 3.2 -11.6782
868 3 4.8 36.8 4.8 -11.109
899 4 3.2 38.4 3.2 -13.1698
870 3 8 36.8 4.8 -11.1996
901 1 6.4 38.4 3.2 -11.6914
872 3 11.2 36.8 4.8 -11.1999
903 1 9.6 38.4 3.2 -11.6907
874 3 14.4 36.8 4.8 -11.1956
905 1 12.8 38.4 3.2 -11.7476
876 3 17.6 36.8 4.8 -11.2711
907 4 16 38.4 3.2 -13.355
878 3 20.8 36.8 4.8 -11.2625
909 1 19.2 38.4 3.2 -11.8572
880 2 24 36.8 4.8 -9.76041
911 4 22.4 38.4 3.2 -13.3281
913 4 25.6 38.4 3.2 -13.1511
882 1 27.2 36.8 4.8 -11.6758
915 2 28.8 38.4 3.2 -9.76498
884 1 30.4 36.8 4.8 -11.7552
917 2 32 38.4 3.2 -9.73563
886 1 33.6 36.8 4.8 -11.6203
919 2 35.2 38.4 3.2 -9.76197
888 1 36.8 36.8 4.8 -11.6614
921 3 38.4 38.4 3.2 -11.283
890 4 40 36.8 4.8 -13.1892
923 2 41.6 38.4 3.2 -9.77244
892 4 43.2 36.8 4.8 -13.2292
925 3 44.8 38.4 3.2 -11.1879
894 4 46.4 36.8 4.8 -13.2101
927 4 48 38.4 3.2 -13.2889
896 3 49.6 36.8 4.8 -11.1195
898 3 1.6 40 4.8 -11.1987
929 1 0 41.6 3.2 -11.7529
900 3 4.8 40 4.8 -11.1606
931 4 3.2 41.6 3.2 -13.2166
902 3 8 40 4.8 -11.1662
933 1 6.4 41.6 3.2 -11.663
904 3 11.2 40 4.8 -11.1244
935 1 9.6 41.6 3.2 -11.6535
906 3 14.4 40 4.8 -11.273
937 1 12.8 41.6 3.2 -11.7166
908 3 17.6 40 4.8 -11.2351
939 4 16 41.6 3.2 -13.2642
910 3 20.8 40 4.8 -11.3033
941 1 19.2 41.6 3.2 -11.683
912 2 24 40 4.8 -9.82025
943 4 22.4 41.6 3.2 -13.2383
945 2 25.6 41.6 3.2 -9.73721
914 4 27.2 40 4.8 -13.1912
947 2 28.8 41.6 3.2 -9.70372
916 4 30.4 40 4.8 -13.2223
949 4 32 41.6 3.2 -13.1244
918 4 33.6 40 4.8 -13.2019
951 3 35.2 41.6 3.2 -11.1027
920 4 36.8 40 4.8 -13.2581
953 3 38.4 41.6 3.2 -11.1873
922 4 40 40 4.8 -13.3325
955 4 41.6 41.6 3.2 -13.2436
924 4 43.2 40 4.8 -13.3024
957 4 44.8 41.6 3.2 -13.2221
926 3 46.4 40 4.8 -11.2272
959 1 48 41.6 3.2 -11.6931
928 3 49.6 40 4.8 -11.1613
930 3 1.6 43.2 4.8 -11.1974
961 4 0 44.8 3.2 -13.3375
932 4 4.8 43.2 4.8 -13.0108
963 1 3.2 44.8 3.2 -11.7458
934 3 8 43.2 4.8 -10.9961
965 1 6.4 44.8 3.2 -11.6722
936 4 11.2 43.2 4.8 -13.0661
967 1 9.6 44.8 3.2 -11.6741
938 2 14.4 43.2 4.8 -9.70273
969 4 12.8 44.8 3.2 -13.1823
940 4 17.6 43.2 4.8 -12.9795
971 4 16 44.8 3.2 -13.2403
942 2 20.8 43.2 4.8 -9.63421
973 1 19.2 44.8 3.2 -11.6656
944 4 24 43.2 4.8 -13.2088
975 1 22.4 44.8 3.2 -11.7157
977 4 25.6 44.8 3.2 -13.1495
946 4 27.2 43.2 4.8 -13.0739
979 4 28.8 44.8 3.2 -13.038
948 1 30.4 43.2 4.8 -11.5986
981 3 32 44.8 3.2 -11.0278
950 1 33.6 43.2 4.8 -11.6001
983 4 35.2 44.8 3.2 -13.0277
952 1 36.8 43.2 4.8 -11.6718
985 3 38.4 44.8 3.2 -11.1551
954 4 40 43.2 4.8 -13.3377
987 3 41.6 44.8 3.2 -11.1439
956 4 43.2 43.2 4.8 -13.292
989 4 44.8 44.8 3.2 -13.2161
958 3 46.4 43.2 4.8 -11.1074
991 1 48 44.8 3.2 -11.7513
960 4 49.6 43.2 4.8 -13.1906
962 3 1.6 46.4 4.8 -11.1487
993 1 0 48 3.2 -11.7228
964 2 4.8 46.4 4.8 -9.65097
995 1 3.2 48 3.2 -11.7683
966 4 8 46.4 4.8 -13.1537
997 4 6.4 48 3.2 -13.277
968 3 11.2 46.4 4.8 -11.1511
999 1 9.6 48 3.2 -11.7213
970 4 14.4 46.4 4.8 -13.1557
1001 1 12.8 48 3.2 -11.6392
972 3 17.6 46.4 4.8 -11.2632
1003 4 16 48 3.2 -13.222
974 3 20.8 46.4 4.8 -11.1235
1005 1 19.2 48 3.2 -11.8101
976 3 24 46.4 4.8 -11.144
1007 1 22.4 48 3.2 -11.6589
1009 3 25.6 48 3.2 -11.1317
978 1 27.2 46.4 4.8 -11.6892
1011 3 28.8 48 3.2 -11.2317
980 4 30.4 46.4 4.8 -13.2105
1013 3 32 48 3.2 -11.2372
982 1 33.6 46.4 4.8 -11.6127
1015 3 35.2 48 3.2 -11.1552
984 1 36.8 46.4 4.8 -11.626
1017 4 38.4 48 3.2 -13.2296
986 1 40 46.4 4.8 -11.7016
1019 4 41.6 48 3.2 -13.1162
988 4 43.2 46.4 4.8 -13.1534
1021 4 44.8 48 3.2 -13.165
990 4 46.4 46.4 4.8 -13.2468
1023 4 48 48 3.2 -13.2507
992 3 49.6 46.4 4.8 -11.1446
994 4 1.6 49.6 4.8 -13.0845
996 3 4.8 49.6 4.8 -11.2303
998 3 8 49.6 4.8 -11.1898
1000 3 11.2 49.6 4.8 -11.2201
1002 4 14.4 49.6 4.8 -13.115
1004 3 17.6 49.6 4.8 -11.1877
1006 4 20.8 49.6 4.8 -13.0667
1008 4 24 49.6 4.8 -13.1324
1010 4 27.2 49.6 4.8 -13.2661
1012 4 30.4 49.6 4.8 -13.349
1014 4 33.6 49.6 4.8 -13.2456
1016 4 36.8 49.6 4.8 -13.2376
1018 3 40 49.6 4.8 -11.0868
1020 2 43.2 49.6 4.8 -9.77303
1022 3 46.4 49.6 4.8 -11.0878
1024 4 49.6 49.6 4.8 -13.1566
1025 1 0 0 6.4 -11.6629
1026 3 1.6 1.6 8 -11.1971
1027 4 3.2 0 6.4 -13.247
1028 3 4.8 1.6 8 -11.1988
1029 1 6.4 0 6.4 -11.8109
1030 2 8 1.6 8 -9.6632
1031 4 9.6 0 6.4 -13.3011
1032 4 11.2 1.6 8 -13.1999
1033 4 12.8 0 6.4 -13.2614
1034 4 14.4 1.6 8 -13.1662
1035 1 16 0 6.4 -11.6931
1036 3 17.6 1.6 8 -11.0345
1037 4 19.2 0 6.4 -13.287
1038 3 20.8 1.6 8 -11.2005
1039 4 22.4 0 6.4 -13.1757
1040 2 24 1.6 8 -9.69689
1041 4 25.6 0 6.4 -13.1969
1042 4 27.2 1.6 8 -13.1549
1043 3 28.8 0 6.4 -11.209
1044 4 30.4 1.6 8 -13.1855
1045 3 32 0 6.4 -11.1329
1046 4 33.6 1.6 8 -13.2042
1047 4 35.2 0 6.4 -13.2144
1048 4 36.8 1.6 8 -13.2504
1049 4 38.4 0 6.4 -13.1497
1050 4 40 1.6 8 -13.1464
1051 4 41.6 0 6.4 -13.2569
1052 2 43.2 1.6 8 -9.67243
1053 2 44.8 0 6.4 -9.72993
1054 4 46.4 1.6 8 -13.0195
1055 4 48 0 6.4 -13.17
1056 4 49.6 1.6 8 -13.096
1057 4 0 3.2 6.4 -13.2518
1058 3 1.6 4.8 8 -11.2317
1059 1 3.2 3.2 6.4 -11.8149
1060 3 4.8 4.8 8 -11.2377
1061 1 6.4 3.2 6.4 -11.7501
1062 2 8 4.8 8 -9.69034
1063 1 9.6 3.2 6.4 -11.7386
1064 3 11.2 4.8 8 -11.2234
1065 4 12.8 3.2 6.4 -13.2937
1066 3 14.4 4.8 8 -11.0975
1067 1 16 3.2 6.4 -11.7091
1068 4 17.6 4.8 8 -13.098
1069 1 19.2 3.2 6.4 -11.7345
1070 3 20.8 4.8 8 -11.1629
1071 1 22.4 3.2 6.4 -11.7404
1072 2 24 4.8 8 -9.75364
1073 1 25.6 3.2 6.4 -11.7722
1074 3 27.2 4.8 8 -11.1411
1075 4 28.8 3.2 6.4 -13.2368
1076 4 30.4 4.8 8 -13.1746
1077 4 32 3.2 6.4 -13.1667
1078 4 33.6 4.8 8 -13.2625
1079 4 35.2 3.2 6.4 -13.1528
1080 3 36.8 4.8 8 -11.1775
1081 1 38.4 3.2 6.4 -11.6366
1082 3 40 4.8 8 -11.1455
1083 4 41.6 3.2 6.4 -13.1818
1084 4 43.2 4.8 8 -13.2403
1085 4 44.8 3.2 6.4 -13.1575
1086 4 46.4 4.8 8 -13.133
1087 4 48 3.2 6.4 -13.1253
1088 4 49.6 4.8 8 -13.1742
1089 4 0 6.4 6.4 -13.1688
1090 2 1.6 8 8 -9.69676
1091 1 3.2 6.4 6.4 -11.7808
1092 3 4.8 8 8 -11.1576
1093 1 6.4 6.4 6.4 -11.814
1094 3 8 8 8 -11.2382
1095 4 9.6 6.4 6.4 -13.223
1096 4 11.2 8 8 -12.9816
1097 4 12.8 6.4 6.4 -13.2502
1098 2 14.4 8 8 -9.71965
1099 1 16 6.4 6.4 -11.7389
1100 3 17.6 8 8 -11.1235
1101 1 19.2 6.4 6.4 -11.7803
1102 3 20.8 8 8 -11.1996
1103 1 22.4 6.4 6.4 -11.8439