ITEM: TIMESTEP
0
ITEM: NUMBER OF ATOMS
8192
ITEM: BOX BOUNDS pp pp pp
0.0000000000000000e+00 5.1200000000000003e+01
0.0000000000000000e+00 5.1200000000000003e+01
0.0000000000000000e+00 5.1200000000000003e+01
ITEM: ATOMS id type x y z c_eng
1 1 0 0 0 -11.6785
2 4 1.6 1.6 1.6 -13.1535
3 1 3.2 0 0 -11.7409
4 2 4.8 1.6 1.6 -9.78609
5 4 6.4 0 0 -13.2459
6 3 8 1.6 1.6 -11.1342
7 4 9.6 0 0 -13.2305
8 3 11.2 1.6 1.6 -11.253
9 1 12.8 0 0 -11.6934
10 4 14.4 1.6 1.6 -13.2018
11 4 16 0 0 -13.1854
12 4 17.6 1.6 1.6 -13.119
13 1 19.2 0 0 -11.7292
14 3 20.8 1.6 1.6 -11.2646
15 4 22.4 0 0 -13.298
16 4 24 1.6 1.6 -13.1229
17 4 25.6 0 0 -13.2226
18 4 27.2 1.6 1.6 -13.167
19 2 28.8 0 0 -9.73434
20 2 30.4 1.6 1.6 -9.75563
21 4 32 0 0 -13.2462
22 4 33.6 1.6 1.6 -13.2566
23 3 35.2 0 0 -11.2227
24 4 36.8 1.6 1.6 -13.2659
25 4 38.4 0 0 -13.3342
26 3 40 1.6 1.6 -11.2358
27 1 41.6 0 0 -11.8253
28 3 43.2 1.6 1.6 -11.1629
29 1 44.8 0 0 -11.8281
30 3 46.4 1.6 1.6 -11.1613
31 1 48 0 0 -11.7466
32 3 49.6 1.6 1.6 -11.124
33 1 0 3.2 0 -11.7361
34 2 1.6 4.8 1.6 -9.66154
35 4 3.2 3.2 0 -13.1502
36 4 4.8 4.8 1.6 -13.0783
37 1 6.4 3.2 0 -11.6911
38 4 8 4.8 1.6 -13.1583
39 4 9.6 3.2 0 -13.2779
40 2 11.2 4.8 1.6 -9.76364
41 1 12.8 3.2 0 -11.773
42 3 14.4 4.8 1.6 -11.2614
43 4 16 3.2 0 -13.293
44 3 17.6 4.8 1.6 -11.2956
45 4 19.2 3.2 0 -13.3004
46 3 20.8 4.8 1.6 -11.2586
47 1 22.4 3.2 0 -11.6928
48 4 24 4.8 1.6 -13.1113
49 4 25.6 3.2 0 -13.1648
50 3 27.2 4.8 1.6 -11.2159
51 4 28.8 3.2 0 -13.2172
52 4 30.4 4.8 1.6 -13.2309
53 4 32 3.2 0 -13.1334
54 4 33.6 4.8 1.6 -13.2265
55 4 35.2 3.2 0 -13.1831
56 3 36.8 4.8 1.6 -11.2286
57 4 38.4 3.2 0 -13.2459
58 3 40 4.8 1.6 -11.2018
59 1 41.6 3.2 0 -11.7837
60 3 43.2 4.8 1.6 -11.2392
61 4 44.8 3.2 0 -13.2862
62 2 46.4 4.8 1.6 -9.74779
63 1 48 3.2 0 -11.8284
64 3 49.6 4.8 1.6 -11.0828
65 1 0 6.4 0 -11.6732
66 2 1.6 8 1.6 -9.7483
67 1 3.2 6.4 0 -11.7536
68 3 4.8 8 1.6 -11.231
69 4 6.4 6.4 0 -13.2277
70 3 8 8 1.6 -11.0703
71 4 9.6 6.4 0 -13.2862
72 3 11.2 8 1.6 -11.2735
73 1 12.8 6.4 0 -11.8043
74 3 14.4 8 1.6 -11.1167
75 4 16 6.4 0 -13.1965
76 4 17.6 8 1.6 -13.0356
77 1 19.2 6.4 0 -11.7544
78 3 20.8 8 1.6 -11.2278
79 1 22.4 6.4 0 -11.6549
80 4 24 8 1.6 -13.1564
81 1 25.6 6.4 0 -11.6594
82 3 27.2 8 1.6 -11.0566
83 4 28.8 6.4 0 -13.2458
84 4 30.4 8 1.6 -13.2545
85 3 32 6.4 0 -11.1744
86 4 33.6 8 1.6 -13.2971
87 4 35.2 6.4 0 -13.2346
88 3 36.8 8 1.6 -11.1068
89 1 38.4 6.4 0 -11.7659
90 2 40 8 1.6 -9.71588
91 1 41.6 6.4 0 -11.7672
92 3 43.2 8 1.6 -11.1577
93 1 44.8 6.4 0 -11.8173
94 3 46.4 8 1.6 -11.1594
95 1 48 6.4 0 -11.7045
96 4 49.6 8 1.6 -13.1141
97 4 0 9.6 0 -13.2389
98 3 1.6 11.2 1.6 -11.2716
99 1 3.2 9.6 0 -11.8133
100 3 4.8 11.2 1.6 -11.1935
101 1 6.4 9.6 0 -11.7329
102 4 8 11.2 1.6 -13.2011
103 1 9.6 9.6 0 -11.7256
104 4 11.2 11.2 1.6 -13.2067
105 4 12.8 9.6 0 -13.2611
106 3 14.4 11.2 1.6 -11.1262
107 1 16 9.6 0 -11.6122
108 4 17.6 11.2 1.6 -13.0672
109 4 19.2 9.6 0 -13.1934
110 3 20.8 11.2 1.6 -11.1049
111 4 22.4 9.6 0 -13.3026
112 3 24 11.2 1.6 -11.2337
113 4 25.6 9.6 0 -13.2359
114 4 27.2 11.2 1.6 -13.1157
115 4 28.8 9.6 0 -13.2477
116 3 30.4 11.2 1.6 -11.1457
117 3 32 9.6 0 -11.2722
118 4 33.6 11.2 1.6 -13.1763
119 4 35.2 9.6 0 -13.1868
120 4 36.8 11.2 1.6 -13.1681
121 4 38.4 9.6 0 -13.1365
122 2 40 11.2 1.6 -9.70347
123 4 41.6 9.6 0 -13.2442
124 4 43.2 11.2 1.6 -13.0779
125 1 44.8 9.6 0 -11.748
126 2 46.4 11.2 1.6 -9.68957
127 4 48 9.6 0 -13.2481
128 3 49.6 11.2 1.6 -11.1931
129 1 0 12.8 0 -11.7618
130 3 1.6 14.4 1.6 -11.2026
131 1 3.2 12.8 0 -11.7534
132 3 4.8 14.4 1.6 -11.1621
133 1 6.4 12.8 0 -11.7324
134 2 8 14.4 1.6 -9.72925
135 4 9.6 12.8 0 -13.2191
136 3 11.2 14.4 1.6 -11.1573
137 1 12.8 12.8 0 -11.7512
138 3 14.4 14.4 1.6 -11.125
139 1 16 12.8 0 -11.678
140 2 17.6 14.4 1.6 -9.63119
141 4 19.2 12.8 0 -13.1963
142 4 20.8 14.4 1.6 -13.1061
143 1 22.4 12.8 0 -11.7901
144 3 24 14.4 1.6 -11.1628
145 4 25.6 12.8 0 -13.1262
146 4 27.2 14.4 1.6 -13.1119
147 1 28.8 12.8 0 -11.5864
148 3 30.4 14.4 1.6 -11.1476
149 4 32 12.8 0 -13.2968
150 4 33.6 14.4 1.6 -13.1621
151 4 35.2 12.8 0 -13.0996
152 3 36.8 14.4 1.6 -11.2417
153 1 38.4 12.8 0 -11.6308
154 3 40 14.4 1.6 -11.2122
155 4 41.6 12.8 0 -13.1394
156 4 43.2 14.4 1.6 -13.1977
157 1 44.8 12.8 0 -11.6454
158 2 46.4 14.4 1.6 -9.72821
159 4 48 12.8 0 -13.2464
160 3 49.6 14.4 1.6 -11.2719
161 4 0 16 0 -13.283
162 3 1.6 17.6 1.6 -11.201
163 1 3.2 16 0 -11.7345
164 4 4.8 17.6 1.6 -13.0127
165 1 6.4 16 0 -11.6473
166 2 8 17.6 1.6 -9.66098
167 1 9.6 16 0 -11.6719
168 3 11.2 17.6 1.6 -11.2664
169 1 12.8 16 0 -11.7045
170 3 14.4 17.6 1.6 -11.1927
171 1 16 16 0 -11.6335
172 4 17.6 17.6 1.6 -13.0215
173 1 19.2 16 0 -11.6227
174 2 20.8 17.6 1.6 -9.66584
175 1 22.4 16 0 -11.7583
176 3 24 17.6 1.6 -11.1983
177 1 25.6 16 0 -11.7416
178 3 27.2 17.6 1.6 -11.1827
179 4 28.8 16 0 -13.2592
180 2 30.4 17.6 1.6 -9.78754
181 2 32 16 0 -9.81095
182 4 33.6 17.6 1.6 -13.1218
183 3 35.2 16 0 -11.2065
184 4 36.8 17.6 1.6 -13.2085
185 4 38.4 16 0 -13.262
186 4 40 17.6 1.6 -13.1626
187 4 41.6 16 0 -13.2646
188 2 43.2 17.6 1.6 -9.79652
189 4 44.8 16 0 -13.2304
190 3 46.4 17.6 1.6 -11.2917
191 4 48 16 0 -13.2585
192 3 49.6 17.6 1.6 -11.2288
193 1 0 19.2 0 -11.744
194 3 1.6 20.8 1.6 -11.1891
195 1 3.2 19.2 0 -11.7618
196 3 4.8 20.8 1.6 -11.1174
197 4 6.4 19.2 0 -13.2299
198 3 8 20.8 1.6 -11.3029
199 4 9.6 19.2 0 -13.2794
200 3 11.2 20.8 1.6 -11.2157
201 4 12.8 19.2 0 -13.2647
202 4 14.4 20.8 1.6 -13.1975
203 4 16 19.2 0 -13.2008
204 2 17.6 20.8 1.6 -9.77255
205 4 19.2 19.2 0 -13.1693
206 4 20.8 20.8 1.6 -13.0152
207 1 22.4 19.2 0 -11.6847
208 4 24 20.8 1.6 -13.1789
209 4 25.6 19.2 0 -13.3097
210 3 27.2 20.8 1.6 -11.177
211 4 28.8 19.2 0 -13.2616
212 4 30.4 20.8 1.6 -13.2711
213 4 32 19.2 0 -13.0723
214 4 33.6 20.8 1.6 -13.1166
215 4 35.2 19.2 0 -13.2198
216 3 36.8 20.8 1.6 -11.2531
217 4 38.4 19.2 0 -13.2366
218 3 40 20.8 1.6 -11.2257
219 4 41.6 19.2 0 -13.2327
220 4 43.2 20.8 1.6 -13.1623
221 4 44.8 19.2 0 -13.2911
222 3 46.4 20.8 1.6 -11.147
223 4 48 19.2 0 -13.2284
224 4 49.6 20.8 1.6 -13.2005
225 4 0 22.4 0 -13.288
226 3 1.6 24 1.6 -11.2587
227 4 3.2 22.4 0 -13.2777
228 4 4.8 24 1.6 -13.0288
229 1 6.4 22.4 0 -11.6311
230 2 8 24 1.6 -9.70148
231 4 9.6 22.4 0 -13.2978
232 4 11.2 24 1.6 -13.2417
233 1 12.8 22.4 0 -11.6856
234 2 14.4 24 1.6 -9.67511
235 4 16 22.4 0 -13.1545
236 4 17.6 24 1.6 -13.1532
237 4 19.2 22.4 0 -13.1662
238 1 20.8 24 1.6 -11.6517
239 4 22.4 22.4 0 -13.0651
240 4 24 24 1.6 -13.1637
241 4 25.6 22.4 0 -13.2205
242 3 27.2 24 1.6 -11.2503
243 4 28.8 22.4 0 -13.3637
244 3 30.4 24 1.6 -11.2595
245 4 32 22.4 0 -13.2284
246 3 33.6 24 1.6 -11.1414
247 4 35.2 22.4 0 -13.2978
248 4 36.8 24 1.6 -13.2481
249 4 38.4 22.4 0 -13.3241
250 3 40 24 1.6 -11.117
251 1 41.6 22.4 0 -11.7106
252 3 43.2 24 1.6 -11.2376
253 1 44.8 22.4 0 -11.743
254 3 46.4 24 1.6 -11.2744
255 1 48 22.4 0 -11.6667
256 3 49.6 24 1.6 -11.1162
257 4 0 25.6 0 -13.2809
259 4 3.2 25.6 0 -13.2041
261 4 6.4 25.6 0 -13.1152
263 4 9.6 25.6 0 -13.2337
265 4 12.8 25.6 0 -13.199
267 4 16 25.6 0 -13.215
269 2 19.2 25.6 0 -9.79072
271 3 22.4 25.6 0 -11.1485
273 4 25.6 25.6 0 -13.1486
275 4 28.8 25.6 0 -13.235
277 4 32 25.6 0 -13.2674
279 4 35.2 25.6 0 -13.2688
281 4 38.4 25.6 0 -13.2755
283 1 41.6 25.6 0 -11.8283
285 1 44.8 25.6 0 -11.7803
287 1 48 25.6 0 -11.7181
258 2 1.6 27.2 1.6 -9.63519
289 4 0 28.8 0 -13.2475
260 4 4.8 27.2 1.6 -13.0212
291 1 3.2 28.8 0 -11.7123
262 2 8 27.2 1.6 -9.73557
293 4 6.4 28.8 0 -13.3247
264 4 11.2 27.2 1.6 -13.2359
295 4 9.6 28.8 0 -13.3194
266 4 14.4 27.2 1.6 -13.2158
297 4 12.8 28.8 0 -13.2996
268 4 17.6 27.2 1.6 -13.2548
299 3 16 28.8 0 -11.1637
270 4 20.8 27.2 1.6 -13.2445
301 3 19.2 28.8 0 -11.2265
272 4 24 27.2 1.6 -13.1539
303 3 22.4 28.8 0 -11.193
305 2 25.6 28.8 0 -9.73692
274 4 27.2 27.2 1.6 -13.1412
307 4 28.8 28.8 0 -13.2059
276 2 30.4 27.2 1.6 -9.72526
309 1 32 28.8 0 -11.7446
278 3 33.6 27.2 1.6 -11.1992
311 1 35.2 28.8 0 -11.7358
280 3 36.8 27.2 1.6 -11.1568
313 1 38.4 28.8 0 -11.7788
282 3 40 27.2 1.6 -11.2361
315 1 41.6 28.8 0 -11.812
284 3 43.2 27.2 1.6 -11.2764
317 1 44.8 28.8 0 -11.7665
286 3 46.4 27.2 1.6 -11.2008
319 4 48 28.8 0 -13.2525
288 4 49.6 27.2 1.6 -13.2405
290 3 1.6 30.4 1.6 -11.2386
321 1 0 32 0 -11.711
292 3 4.8 30.4 1.6 -11.2708
323 1 3.2 32 0 -11.7652
294 3 8 30.4 1.6 -11.2873
325 4 6.4 32 0 -13.2707
296 3 11.2 30.4 1.6 -11.2814
327 4 9.6 32 0 -13.2825
298 4 14.4 30.4 1.6 -13.2218
329 4 12.8 32 0 -13.3252
300 4 17.6 30.4 1.6 -13.2595
331 4 16 32 0 -13.3001
302 1 20.8 30.4 1.6 -11.7136
333 3 19.2 32 0 -11.1423
304 4 24 30.4 1.6 -13.1991
335 4 22.4 32 0 -13.134
337 4 25.6 32 0 -13.1363
306 4 27.2 30.4 1.6 -13.1962
339 1 28.8 32 0 -11.6721
308 3 30.4 30.4 1.6 -11.1564
341 1 32 32 0 -11.7056
310 3 33.6 30.4 1.6 -11.1212
343 1 35.2 32 0 -11.722
312 4 36.8 30.4 1.6 -13.0209
345 1 38.4 32 0 -11.7175
314 2 40 30.4 1.6 -9.65227
347 1 41.6 32 0 -11.7371
316 3 43.2 30.4 1.6 -11.1241
349 1 44.8 32 0 -11.6407
318 3 46.4 30.4 1.6 -11.1206
351 1 48 32 0 -11.6359
320 3 49.6 30.4 1.6 -11.196
322 3 1.6 33.6 1.6 -11.2022
353 1 0 35.2 0 -11.7068
324 3 4.8 33.6 1.6 -11.1962
355 1 3.2 35.2 0 -11.7472
326 4 8 33.6 1.6 -13.1267
357 4 6.4 35.2 0 -13.2331
328 4 11.2 33.6 1.6 -13.2426
359 4 9.6 35.2 0 -13.2381
330 3 14.4 33.6 1.6 -11.1903
361 1 12.8 35.2 0 -11.7891
332 4 17.6 33.6 1.6 -13.2674
363 4 16 35.2 0 -13.2959
334 4 20.8 33.6 1.6 -13.1527
365 4 19.2 35.2 0 -13.2406
336 4 24 33.6 1.6 -13.1427
367 4 22.4 35.2 0 -13.1763
369 4 25.6 35.2 0 -13.1809
338 4 27.2 33.6 1.6 -13.1426
371 1 28.8 35.2 0 -11.6422
340 4 30.4 33.6 1.6 -13.2263
373 1 32 35.2 0 -11.6468
342 3 33.6 33.6 1.6 -11.152
375 4 35.2 35.2 0 -13.1725
344 3 36.8 33.6 1.6 -11.0721
377 1 38.4 35.2 0 -11.6999
346 2 40 33.6 1.6 -9.65978
379 4 41.6 35.2 0 -13.2957
348 4 43.2 33.6 1.6 -13.1077
381 4 44.8 35.2 0 -13.2389
350 4 46.4 33.6 1.6 -13.0199
383 1 48 35.2 0 -11.672
352 3 49.6 33.6 1.6 -11.1167
354 3 1.6 36.8 1.6 -11.2406
385 1 0 38.4 0 -11.74
356 3 4.8 36.8 1.6 -11.2292
387 1 3.2 38.4 0 -11.6778
358 3 8 36.8 1.6 -11.2853
389 4 6.4 38.4 0 -13.2579
360 3 11.2 36.8 1.6 -11.1839
391 4 9.6 38.4 0 -13.2596
362 3 14.4 36.8 1.6 -11.3044
393 1 12.8 38.4 0 -11.6389
364 3 17.6 36.8 1.6 -11.1806
395 4 16 38.4 0 -13.2253
366 4 20.8 36.8 1.6 -13.1589
397 4 19.2 38.4 0 -13.3346
368 2 24 36.8 1.6 -9.74251
399 4 22.4 38.4 0 -13.2624
401 4 25.6 38.4 0 -13.2015
370 4 27.2 36.8 1.6 -13.096
403 1 28.8 38.4 0 -11.7235
372 2 30.4 36.8 1.6 -9.73069
405 4 32 38.4 0 -13.2698
374 3 33.6 36.8 1.6 -11.1365
407 4 35.2 38.4 0 -13.1946
376 4 36.8 36.8 1.6 -13.2182
409 4 38.4 38.4 0 -13.2018
378 2 40 36.8 1.6 -9.76505
411 1 41.6 38.4 0 -11.7425
380 3 43.2 36.8 1.6 -11.2687
413 1 44.8 38.4 0 -11.8552
382 3 46.4 36.8 1.6 -11.2026
415 1 48 38.4 0 -11.7986
384 3 49.6 36.8 1.6 -11.2051
386 3 1.6 40 1.6 -10.9928
417 1 0 41.6 0 -11.645
388 4 4.8 40 1.6 -13.1498
419 1 3.2 41.6 0 -11.6234
390 3 8 40 1.6 -11.2186
421 1 6.4 41.6 0 -11.7145
392 4 11.2 40 1.6 -13.1964
423 4 9.6 41.6 0 -13.2422
394 4 14.4 40 1.6 -13.122
425 4 12.8 41.6 0 -13.1842
396 3 17.6 40 1.6 -11.1549
427 1 16 41.6 0 -11.7235
398 3 20.8 40 1.6 -11.1118
429 1 19.2 41.6 0 -11.8133
400 4 24 40 1.6 -13.0868
431 4 22.4 41.6 0 -13.252
433 4 25.6 41.6 0 -13.1672
402 4 27.2 40 1.6 -13.0925
435 4 28.8 41.6 0 -13.2467
404 3 30.4 40 1.6 -11.2062
437 4 32 41.6 0 -13.2836
406 4 33.6 40 1.6 -13.2874
439 4 35.2 41.6 0 -13.2583
408 4 36.8 40 1.6 -13.2385
441 3 38.4 41.6 0 -11.1885
410 4 40 40 1.6 -13.2687
443 2 41.6 41.6 0 -9.79892
412 3 43.2 40 1.6 -11.1954
445 1 44.8 41.6 0 -11.7021
414 3 46.4 40 1.6 -11.1657
447 1 48 41.6 0 -11.6536
416 3 49.6 40 1.6 -11.166
418 2 1.6 43.2 1.6 -9.71907
449 4 0 44.8 0 -13.1867
420 3 4.8 43.2 1.6 -11.0384
451 1 3.2 44.8 0 -11.7245
422 3 8 43.2 1.6 -11.2012
453 1 6.4 44.8 0 -11.7214
424 4 11.2 43.2 1.6 -13.2426
455 1 9.6 44.8 0 -11.7717
426 3 14.4 43.2 1.6 -11.151
457 4 12.8 44.8 0 -13.3619
428 3 17.6 43.2 1.6 -11.2422
459 1 16 44.8 0 -11.8555
430 2 20.8 43.2 1.6 -9.783
461 1 19.2 44.8 0 -11.6981
432 3 24 43.2 1.6 -11.1417
463 1 22.4 44.8 0 -11.7215
465 4 25.6 44.8 0 -13.2741
434 4 27.2 43.2 1.6 -13.2196
467 3 28.8 44.8 0 -11.1758
436 4 30.4 43.2 1.6 -13.3308
469 2 32 44.8 0 -9.74046
438 4 33.6 43.2 1.6 -13.2392
471 3 35.2 44.8 0 -11.1892
440 1 36.8 43.2 1.6 -11.7448
473 4 38.4 44.8 0 -13.2215
442 4 40 43.2 1.6 -13.2312
475 4 41.6 44.8 0 -13.0879
444 2 43.2 43.2 1.6 -9.63576
477 1 44.8 44.8 0 -11.545
446 4 46.4 43.2 1.6 -12.9683
479 1 48 44.8 0 -11.6179
448 2 49.6 43.2 1.6 -9.62222
450 3 1.6 46.4 1.6 -11.1535
481 1 0 48 0 -11.748
452 4 4.8 46.4 1.6 -13.1993
483 1 3.2 48 0 -11.7972
454 3 8 46.4 1.6 -11.0343
485 1 6.4 48 0 -11.7227
456 3 11.2 46.4 1.6 -11.114
487 4 9.6 48 0 -13.1784
458 3 14.4 46.4 1.6 -11.2721
489 1 12.8 48 0 -11.7114
460 3 17.6 46.4 1.6 -11.1628
491 1 16 48 0 -11.8281
462 4 20.8 46.4 1.6 -13.1473
493 1 19.2 48 0 -11.6866
464 3 24 46.4 1.6 -11.2537
495 4 22.4 48 0 -13.2125
497 4 25.6 48 0 -13.237
466 4 27.2 46.4 1.6 -13.292
499 4 28.8 48 0 -13.2448
468 4 30.4 46.4 1.6 -13.2235
501 2 32 48 0 -9.66629
470 1 33.6 46.4 1.6 -11.6862
503 3 35.2 48 0 -11.2325
472 4 36.8 46.4 1.6 -13.2391
505 4 38.4 48 0 -13.1936
474 4 40 46.4 1.6 -13.1072
507 1 41.6 48 0 -11.694
476 4 43.2 46.4 1.6 -13.1214
509 1 44.8 48 0 -11.7215
478 3 46.4 46.4 1.6 -11.0269
511 1 48 48 0 -11.6755
480 2 49.6 46.4 1.6 -9.6924
482 3 1.6 49.6 1.6 -11.1517
484 3 4.8 49.6 1.6 -11.2232
486 4 8 49.6 1.6 -13.2413
488 4 11.2 49.6 1.6 -13.0755
490 2 14.4 49.6 1.6 -9.6904
492 3 17.6 49.6 1.6 -11.1172
494 3 20.8 49.6 1.6 -11.2241
496 3 24 49.6 1.6 -11.2431
498 4 27.2 49.6 1.6 -13.1926
500 4 30.4 49.6 1.6 -13.2205
502 1 33.6 49.6 1.6 -11.7044
504 4 36.8 49.6 1.6 -13.3052
506 3 40 49.6 1.6 -11.1901
508 3 43.2 49.6 1.6 -11.2392
510 3 46.4 49.6 1.6 -11.1618
512 4 49.6 49.6 1.6 -13.0224
513 4 0 0 3.2 -13.2252
514 3 1.6 1.6 4.8 -11.1937
515 4 3.2 0 3.2 -13.3275
516 3 4.8 1.6 4.8 -11.1438
517 4 6.4 0 3.2 -13.3632
518 4 8 1.6 4.8 -13.2748
519 4 9.6 0 3.2 -13.3202
520 3 11.2 1.6 4.8 -11.2493
521 4 12.8 0 3.2 -13.2838
522 3 14.4 1.6 4.8 -11.1487
523 1 16 0 3.2 -11.6503
524 2 17.6 1.6 4.8 -9.68611
525 1 19.2 0 3.2 -11.7033
526 3 20.8 1.6 4.8 -11.0647
527 4 22.4 0 3.2 -13.2592
528 4 24 1.6 4.8 -13.1343
529 4 25.6 0 3.2 -13.0661
530 4 27.2 1.6 4.8 -13.0858
531 4 28.8 0 3.2 -13.1698
532 4 30.4 1.6 4.8 -13.2173
533 3 32 0 3.2 -11.1785
534 4 33.6 1.6 4.8 -13.3221
535 3 35.2 0 3.2 -11.2605
536 4 36.8 1.6 4.8 -13.185
537 4 38.4 0 3.2 -13.2053
538 2 40 1.6 4.8 -9.66803
539 1 41.6 0 3.2 -11.7437
540 4 43.2 1.6 4.8 -13.014
541 1 44.8 0 3.2 -11.6933
542 4 46.4 1.6 4.8 -12.9649
543 1 48 0 3.2 -11.6602
544 3 49.6 1.6 4.8 -11.2298
545 1 0 3.2 3.2 -11.783
546 3 1.6 4.8 4.8 -11.2037
547 4 3.2 3.2 3.2 -13.2398
548 2 4.8 4.8 4.8 -9.71986
549 4 6.4 3.2 3.2 -13.1681
550 2 8 4.8 4.8 -9.4424
551 4 9.6 3.2 3.2 -13.2259
552 4 11.2 4.8 4.8 -13.1157
553 4 12.8 3.2 3.2 -13.3001
554 2 14.4 4.8 4.8 -9.71948
555 4 16 3.2 3.2 -13.2704
556 3 17.6 4.8 4.8 -11.1541
557 4 19.2 3.2 3.2 -13.3463
558 2 20.8 4.8 4.8 -9.80852
559 4 22.4 3.2 3.2 -13.2631
560 3 24 4.8 4.8 -11.1825
561 4 25.6 3.2 3.2 -13.1871
562 2 27.2 4.8 4.8 -9.79546
563 4 28.8 3.2 3.2 -13.2208
564 2 30.4 4.8 4.8 -9.73708
565 2 32 3.2 3.2 -9.79124
566 2 33.6 4.8 4.8 -9.84688
567 4 35.2 3.2 3.2 -13.2674
568 3 36.8 4.8 4.8 -11.1986
569 1 38.4 3.2 3.2 -11.7386
570 3 40 4.8 4.8 -11.1244
571 1 41.6 3.2 3.2 -11.7461
572 3 43.2 4.8 4.8 -11.1176
573 1 44.8 3.2 3.2 -11.6455
574 4 46.4 4.8 4.8 -13.0673
575 1 48 3.2 3.2 -11.7005
576 3 49.6 4.8 4.8 -11.2037
577 1 0 6.4 3.2 -11.7371
578 3 1.6 8 4.8 -11.1589
579 1 3.2 6.4 3.2 -11.7207
580 3 4.8 8 4.8 -11.1576
581 1 6.4 6.4 3.2 -11.6461
582 4 8 8 4.8 -13.1474
583 1 9.6 6.4 3.2 -11.6674
584 3 11.2 8 4.8 -11.0775
585 4 12.8 6.4 3.2 -13.2189
586 4 14.4 8 4.8 -13.0124
587 1 16 6.4 3.2 -11.6803
588 4 17.6 8 4.8 -12.9773
589 4 19.2 6.4 3.2 -13.2579
590 2 20.8 8 4.8 -9.7353
591 4 22.4 6.4 3.2 -13.2607
592 2 24 8 4.8 -9.73028
593 4 25.6 6.4 3.2 -13.2355
594 4 27.2 8 4.8 -13.1183
595 4 28.8 6.4 3.2 -13.1818
596 4 30.4 8 4.8 -13.12
597 4 32 6.4 3.2 -13.2597
598 3 33.6 8 4.8 -11.1895
599 4 35.2 6.4 3.2 -13.3013
600 2 36.8 8 4.8 -9.72048
601 1 38.4 6.4 3.2 -11.7282
602 4 40 8 4.8 -13.102
603 1 41.6 6.4 3.2 -11.7481
604 2 43.2 8 4.8 -9.75861
605 4 44.8 6.4 3.2 -13.2564
606 3 46.4 8 4.8 -11.1171
607 1 48 6.4 3.2 -11.7055
608 3 49.6 8 4.8 -11.1638
609 4 0 9.6 3.2 -13.3066
610 2 1.6 11.2 4.8 -9.74429
611 4 3.2 9.6 3.2 -13.3306
612 2 4.8 11.2 4.8 -9.80772
613 4 6.4 9.6 3.2 -13.3154
614 3 8 11.2 4.8 -11.1375
615 4 9.6 9.6 3.2 -13.2557
616 3 11.2 11.2 4.8 -11.1954
617 1 12.8 9.6 3.2 -11.7674
618 3 14.4 11.2 4.8 -11.1247
619 1 16 9.6 3.2 -11.5718
620 2 17.6 11.2 4.8 -9.6934
621 4 19.2 9.6 3.2 -13.1631
622 4 20.8 11.2 4.8 -13.1562
623 1 22.4 9.6 3.2 -11.7252
624 3 24 11.2 4.8 -11.1613
625 4 25.6 9.6 3.2 -13.235
626 3 27.2 11.2 4.8 -11.1234
627 1 28.8 9.6 3.2 -11.6762
628 3 30.4 11.2 4.8 -11.1664
629 4 32 9.6 3.2 -13.2825
630 3 33.6 11.2 4.8 -11.1515
631 4 35.2 9.6 3.2 -13.2734
632 3 36.8 11.2 4.8 -11.2645
633 1 38.4 9.6 3.2 -11.6964
634 3 40 11.2 4.8 -11.2659
635 1 41.6 9.6 3.2 -11.6788
636 3 43.2 11.2 4.8 -11.1846
637 1 44.8 9.6 3.2 -11.7166
638 4 46.4 11.2 4.8 -13.1961
639 1 48 9.6 3.2 -11.7378
640 3 49.6 11.2 4.8 -11.1609
641 1 0 12.8 3.2 -11.8279
642 3 1.6 14.4 4.8 -11.2054
643 1 3.2 12.8 3.2 -11.8137
644 3 4.8 14.4 4.8 -11.0732
645 4 6.4 12.8 3.2 -13.3059
646 2 8 14.4 4.8 -9.78373
647 4 9.6 12.8 3.2 -13.2694
648 4 11.2 14.4 4.8 -13.1969
649 1 12.8 12.8 3.2 -11.7454
650 3 14.4 14.4 4.8 -11.1656
651 1 16 12.8 3.2 -11.7359
652 3 17.6 14.4 4.8 -11.118
653 4 19.2 12.8 3.2 -13.2216
654 3 20.8 14.4 4.8 -11.1598
655 1 22.4 12.8 3.2 -11.7451
656 3 24 14.4 4.8 -11.2414
657 1 25.6 12.8 3.2 -11.7657
658 3 27.2 14.4 4.8 -11.1575
659 1 28.8 12.8 3.2 -11.7014
660 2 30.4 14.4 4.8 -9.77687
661 1 32 12.8 3.2 -11.6725
662 4 33.6 14.4 4.8 -13.1154
663 4 35.2 12.8 3.2 -13.2482
664 3 36.8 14.4 4.8 -11.2596
665 4 38.4 12.8 3.2 -13.3394
666 3 40 14.4 4.8 -11.2197
667 4 41.6 12.8 3.2 -13.32
668 3 43.2 14.4 4.8 -11.2315
669 4 44.8 12.8 3.2 -13.1688
670 3 46.4 14.4 4.8 -11.1609
671 1 48 12.8 3.2 -11.7557
672 3 49.6 14.4 4.8 -11.2051
673 1 0 16 3.2 -11.8556
674 3 1.6 17.6 4.8 -11.0804
675 1 3.2 16 3.2 -11.7106
676 4 4.8 17.6 4.8 -12.9705
677 1 6.4 16 3.2 -11.622
678 2 8 17.6 4.8 -9.62744
679 4 9.6 16 3.2 -13.2189
680 3 11.2 17.6 4.8 -11.1215
681 1 12.8 16 3.2 -11.8107
682 3 14.4 17.6 4.8 -11.1549
683 1 16 16 3.2 -11.7334
684 2 17.6 17.6 4.8 -9.77936
685 1 19.2 16 3.2 -11.6558
686 3 20.8 17.6 4.8 -11.1929
687 1 22.4 16 3.2 -11.7495
688 2 24 17.6 4.8 -9.78614
689 4 25.6 16 3.2 -13.2598
690 4 27.2 17.6 4.8 -13.2357
691 4 28.8 16 3.2 -13.321
692 3 30.4 17.6 4.8 -11.1895
693 1 32 16 3.2 -11.6819
694 3 33.6 17.6 4.8 -11.0702
695 4 35.2 16 3.2 -13.2397
696 4 36.8 17.6 4.8 -13.2056
697 4 38.4 16 3.2 -13.2381
698 4 40 17.6 4.8 -13.1613
699 4 41.6 16 3.2 -13.2693
700 3 43.2 17.6 4.8 -11.1887
701 1 44.8 16 3.2 -11.7869
702 3 46.4 17.6 4.8 -11.2344
703 1 48 16 3.2 -11.8412
704 3 49.6 17.6 4.8 -11.2775
705 1 0 19.2 3.2 -11.7411
706 4 1.6 20.8 4.8 -13.1062
707 1 3.2 19.2 3.2 -11.6694
708 3 4.8 20.8 4.8 -11.0303
709 1 6.4 19.2 3.2 -11.683
710 3 8 20.8 4.8 -11.1167
711 1 9.6 19.2 3.2 -11.7856
712 4 11.2 20.8 4.8 -13.1472
713 4 12.8 19.2 3.2 -13.3054
714 2 14.4 20.8 4.8 -9.75754
715 4 16 19.2 3.2 -13.2706
716 3 17.6 20.8 4.8 -11.2149
717 4 19.2 19.2 3.2 -13.2296
718 4 20.8 20.8 4.8 -13.2889
719 4 22.4 19.2 3.2 -13.2105
720 2 24 20.8 4.8 -9.72448
721 1 25.6 19.2 3.2 -11.7027
722 4 27.2 20.8 4.8 -13.2343
723 4 28.8 19.2 3.2 -13.2704
724 3 30.4 20.8 4.8 -11.189
725 1 32 19.2 3.2 -11.6674
726 2 33.6 20.8 4.8 -9.70047
727 4 35.2 19.2 3.2 -13.2262
728 3 36.8 20.8 4.8 -11.2581
729 4 38.4 19.2 3.2 -13.2523
730 3 40 20.8 4.8 -11.184
731 4 41.6 19.2 3.2 -13.2389
732 4 43.2 20.8 4.8 -13.1635
733 4 44.8 19.2 3.2 -13.2925
734 4 46.4 20.8 4.8 -13.2025
735 4 48 19.2 3.2 -13.3099
736 3 49.6 20.8 4.8 -11.0377
737 1 0 22.4 3.2 -11.7251
738 2 1.6 24 4.8 -9.65669
739 4 3.2 22.4 3.2 -13.2173
740 2 4.8 24 4.8 -9.65748
741 1 6.4 22.4 3.2 -11.7478
742 3 8 24 4.8 -11.1956
743 4 9.6 22.4 3.2 -13.3133
744 3 11.2 24 4.8 -11.1923
745 4 12.8 22.4 3.2 -13.2146
746 2 14.4 24 4.8 -9.78806
747 4 16 22.4 3.2 -13.2204
748 4 17.6 24 4.8 -13.182
749 4 19.2 22.4 3.2 -13.1885
750 4 20.8 24 4.8 -13.2311
751 2 22.4 22.4 3.2 -9.69984
752 4 24 24 4.8 -13.2871
753 4 25.6 22.4 3.2 -13.2617
754 3 27.2 24 4.8 -11.2215
755 4 28.8 22.4 3.2 -13.3858
756 3 30.4 24 4.8 -11.1897
757 4 32 22.4 3.2 -13.2388
758 4 33.6 24 4.8 -13.1072
759 4 35.2 22.4 3.2 -13.2592
760 3 36.8 24 4.8 -11.0691
761 1 38.4 22.4 3.2 -11.7852
762 4 40 24 4.8 -13.2043
763 1 41.6 22.4 3.2 -11.7096
764 3 43.2 24 4.8 -11.1088
765 4 44.8 22.4 3.2 -13.2182
766 3 46.4 24 4.8 -11.2366
767 1 48 22.4 3.2 -11.7745
768 3 49.6 24 4.8 -11.2401
769 1 0 25.6 3.2 -11.722
771 1 3.2 25.6 3.2 -11.5595
773 1 6.4 25.6 3.2 -11.5698
775 4 9.6 25.6 3.2 -13.2379
777 4 12.8 25.6 3.2 -13.2623
779 4 16 25.6 3.2 -13.1963
781 3 19.2 25.6 3.2 -11.051
783 4 22.4 25.6 3.2 -13.2096
785 4 25.6 25.6 3.2 -13.1908
787 1 28.8 25.6 3.2 -11.7943
789 1 32 25.6 3.2 -11.7489
791 1 35.2 25.6 3.2 -11.6999
793 1 38.4 25.6 3.2 -11.7001
795 4 41.6 25.6 3.2 -13.2775
797 1 44.8 25.6 3.2 -11.8841
799 4 48 25.6 3.2 -13.313
770 2 1.6 27.2 4.8 -9.58056
801 1 0 28.8 3.2 -11.7251
772 4 4.8 27.2 4.8 -12.8884
803 1 3.2 28.8 3.2 -11.6663
774 4 8 27.2 4.8 -13.203
805 4 6.4 28.8 3.2 -13.1902
776 3 11.2 27.2 4.8 -11.1872
807 4 9.6 28.8 3.2 -13.3701
778 3 14.4 27.2 4.8 -11.1501
809 4 12.8 28.8 3.2 -13.26
780 4 17.6 27.2 4.8 -13.1939
811 4 16 28.8 3.2 -13.1466
782 4 20.8 27.2 4.8 -13.1592
813 4 19.2 28.8 3.2 -13.1678
784 4 24 27.2 4.8 -13.1856
815 4 22.4 28.8 3.2 -13.0473
817 4 25.6 28.8 3.2 -13.1864
786 3 27.2 27.2 4.8 -11.1463
819 1 28.8 28.8 3.2 -11.6776
788 3 30.4 27.2 4.8 -11.1202
821 1 32 28.8 3.2 -11.731
790 2 33.6 27.2 4.8 -9.68905
823 1 35.2 28.8 3.2 -11.663
792 2 36.8 27.2 4.8 -9.66767
825 4 38.4 28.8 3.2 -13.1119
794 4 40 27.2 4.8 -13.1235
827 1 41.6 28.8 3.2 -11.7561
796 3 43.2 27.2 4.8 -11.2384
829 1 44.8 28.8 3.2 -11.8414
798 3 46.4 27.2 4.8 -11.2761
831 1 48 28.8 3.2 -11.7879
800 3 49.6 27.2 4.8 -11.1196
802 3 1.6 30.4 4.8 -11.1577
833 4 0 32 3.2 -13.3163
804 3 4.8 30.4 4.8 -11.1196
835 1 3.2 32 3.2 -11.802
806 3 8 30.4 4.8 -11.2633
837 1 6.4 32 3.2 -11.727
808 3 11.2 30.4 4.8 -11.2487
839 4 9.6 32 3.2 -13.2721
810 4 14.4 30.4 4.8 -13.1718
841 4 12.8 32 3.2 -13.2739
812 4 17.6 30.4 4.8 -13.14
843 4 16 32 3.2 -13.1956
814 4 20.8 30.4 4.8 -13.1132
845 3 19.2 32 3.2 -11.2169
816 4 24 30.4 4.8 -13.1487
847 2 22.4 32 3.2 -9.74228
849 3 25.6 32 3.2 -11.1699
818 4 27.2 30.4 4.8 -13.299
851 3 28.8 32 3.2 -11.2399
820 4 30.4 30.4 4.8 -13.3017
853 4 32 32 3.2 -13.2874
822 2 33.6 30.4 4.8 -9.67119
855 1 35.2 32 3.2 -11.6068
824 4 36.8 30.4 4.8 -13.0181
857 1 38.4 32 3.2 -11.5535
826 2 40 30.4 4.8 -9.63266
859 1 41.6 32 3.2 -11.6473
828 3 43.2 30.4 4.8 -11.1657
861 1 44.8 32 3.2 -11.7106
830 3 46.4 30.4 4.8 -11.2048
863 1 48 32 3.2 -11.7655
832 2 49.6 30.4 4.8 -9.746
834 4 1.6 33.6 4.8 -13.2792
865 1 0 35.2 3.2 -11.8151
836 2 4.8 33.6 4.8 -9.66491
867 4 3.2 35.2 3.2 -13.2818
838 4 8 33.6 4.8 -13.0285
869 1 6.4 35.2 3.2 -11.6536
840 2 11.2 33.6 4.8 -9.76853
871 4 9.6 35.2 3.2 -13.2214
842 3 14.4 33.6 4.8 -11.1543
873 1 12.8 35.2 3.2 -11.7969
844 4 17.6 33.6 4.8 -13.2239
875 1 16 35.2 3.2 -11.7702
846 4 20.8 33.6 4.8 -13.2626
877 4 19.2 35.2 3.2 -13.1256
848 4 24 33.6 4.8 -13.2617
879 4 22.4 35.2 3.2 -13.1816
881 4 25.6 35.2 3.2 -13.2228
850 4 27.2 33.6 4.8 -13.2457
883 2 28.8 35.2 3.2 -9.73763
852 4 30.4 33.6 4.8 -13.2126
885 4 32 35.2 3.2 -13.1894
854 4 33.6 33.6 4.8 -13.2218
887 4 35.2 35.2 3.2 -13.2678
856 4 36.8 33.6 4.8 -13.1405
889 4 38.4 35.2 3.2 -13.2449
858 4 40 33.6 4.8 -13.1042
891 4 41.6 35.2 3.2 -13.2344
860 3 43.2 33.6 4.8 -11.1603
893 1 44.8 35.2 3.2 -11.7486
862 3 46.4 33.6 4.8 -11.1648
895 1 48 35.2 3.2 -11.7802
864 3 49.6 33.6 4.8 -11.2005
866 3 1.6 36.8 4.8 -11.0731
897 1 0 38.4 3.2 -11.7802
868 2 4.8 36.8 4.8 -9.75348
899 1 3.2 38.4 3.2 -11.7515
870 4 8 36.8 4.8 -13.1576
901 4 6.4 38.4 3.2 -13.274
872 3 11.2 36.8 4.8 -11.2584
903 4 9.6 38.4 3.2 -13.3764
874 3 14.4 36.8 4.8 -11.2993
905 4 12.8 38.4 3.2 -13.3154
876 2 17.6 36.8 4.8 -9.76624
907 4 16 38.4 3.2 -13.2657
878 4 20.8 36.8 4.8 -13.1589
909 1 19.2 38.4 3.2 -11.6612
880 3 24 36.8 4.8 -11.1238
911 1 22.4 38.4 3.2 -11.6034
913 4 25.6 38.4 3.2 -13.0736
882 4 27.2 36.8 4.8 -13.1971
915 4 28.8 38.4 3.2 -13.1904
884 4 30.4 36.8 4.8 -13.2297
917 4 32 38.4 3.2 -13.3319
886 4 33.6 36.8 4.8 -13.2397
919 4 35.2 38.4 3.2 -13.184
888 4 36.8 36.8 4.8 -13.2275
921 3 38.4 38.4 3.2 -11.0804
890 4 40 36.8 4.8 -13.27
923 4 41.6 38.4 3.2 -13.2795
892 3 43.2 36.8 4.8 -11.1927
925 1 44.8 38.4 3.2 -11.7974
894 3 46.4 36.8 4.8 -11.2051
927 1 48 38.4 3.2 -11.8417
896 3 49.6 36.8 4.8 -11.2435
898 4 1.6 40 4.8 -13.1491
929 1 0 41.6 3.2 -11.722
900 3 4.8 40 4.8 -11.11
931 1 3.2 41.6 3.2 -11.6949
902 3 8 40 4.8 -11.265
933 1 6.4 41.6 3.2 -11.7977
904 3 11.2 40 4.8 -11.258
935 4 9.6 41.6 3.2 -13.2998
906 2 14.4 40 4.8 -9.69311
937 4 12.8 41.6 3.2 -13.2015
908 4 17.6 40 4.8 -13.1153
939 1 16 41.6 3.2 -11.6755
910 2 20.8 40 4.8 -9.59894
941 1 19.2 41.6 3.2 -11.7321
912 4 24 40 4.8 -13.1017
943 1 22.4 41.6 3.2 -11.6737
945 4 25.6 41.6 3.2 -13.1147
914 4 27.2 40 4.8 -13.2118
947 4 28.8 41.6 3.2 -13.2871
916 4 30.4 40 4.8 -13.3659
949 3 32 41.6 3.2 -11.1565
918 4 33.6 40 4.8 -13.2428
951 2 35.2 41.6 3.2 -9.78603
920 4 36.8 40 4.8 -13.2655
953 4 38.4 41.6 3.2 -13.2446
922 4 40 40 4.8 -13.2017
955 4 41.6 41.6 3.2 -13.1458
924 4 43.2 40 4.8 -13.1966
957 1 44.8 41.6 3.2 -11.6511
926 3 46.4 40 4.8 -11.1236
959 1 48 41.6 3.2 -11.7145
928 3 49.6 40 4.8 -11.1645
930 3 1.6 43.2 4.8 -10.944
961 1 0 44.8 3.2 -11.7165
932 2 4.8 43.2 4.8 -9.7784
963 4 3.2 44.8 3.2 -13.2023
934 3 8 43.2 4.8 -11.0702
965 1 6.4 44.8 3.2 -11.7036
936 2 11.2 43.2 4.8 -9.72764
967 1 9.6 44.8 3.2 -11.6574
938 4 14.4 43.2 4.8 -13.241
969 4 12.8 44.8 3.2 -13.2518
940 3 17.6 43.2 4.8 -11.1122
971 1 16 44.8 3.2 -11.7782
942 3 20.8 43.2 4.8 -11.146
973 4 19.2 44.8 3.2 -13.2787
944 4 24 43.2 4.8 -13.2684
975 4 22.4 44.8 3.2 -13.2403
977 4 25.6 44.8 3.2 -13.2991
946 4 27.2 43.2 4.8 -13.2763
979 3 28.8 44.8 3.2 -11.2061
948 4 30.4 43.2 4.8 -13.2128
981 4 32 44.8 3.2 -13.1513
950 4 33.6 43.2 4.8 -13.2282
983 3 35.2 44.8 3.2 -11.223
952 4 36.8 43.2 4.8 -13.2698
985 3 38.4 44.8 3.2 -11.0571
954 1 40 43.2 4.8 -11.6606
987 4 41.6 44.8 3.2 -13.1472
956 4 43.2 43.2 4.8 -13.1814
989 4 44.8 44.8 3.2 -13.14
958 2 46.4 43.2 4.8 -9.69053
991 1 48 44.8 3.2 -11.6743
960 3 49.6 43.2 4.8 -11.1258
962 4 1.6 46.4 4.8 -13.1244
993 4 0 48 3.2 -13.1345
964 2 4.8 46.4 4.8 -9.69734
995 4 3.2 48 3.2 -13.297
966 4 8 46.4 4.8 -13.1102
997 4 6.4 48 3.2 -13.2453
968 4 11.2 46.4 4.8 -13.0725
999 1 9.6 48 3.2 -11.6654
970 3 14.4 46.4 4.8 -11.108
1001 1 12.8 48 3.2 -11.7408
972 4 17.6 46.4 4.8 -13.1592
1003 1 16 48 3.2 -11.7249
974 2 20.8 46.4 4.8 -9.7343
1005 4 19.2 48 3.2 -13.1796
976 4 24 46.4 4.8 -13.1406
1007 4 22.4 48 3.2 -13.2523
1009 4 25.6 48 3.2 -13.2205
978 4 27.2 46.4 4.8 -13.2977
1011 3 28.8 48 3.2 -11.1739
980 4 30.4 46.4 4.8 -13.1993
1013 4 32 48 3.2 -13.0661
982 1 33.6 46.4 4.8 -11.6623
1015 2 35.2 48 3.2 -9.75905
984 4 36.8 46.4 4.8 -13.267
1017 4 38.4 48 3.2 -13.2232
986 4 40 46.4 4.8 -13.1633
1019 4 41.6 48 3.2 -13.1992
988 2 43.2 46.4 4.8 -9.73789
1021 4 44.8 48 3.2 -13.3095
990 3 46.4 46.4 4.8 -11.1965
1023 1 48 48 3.2 -11.6745
992 2 49.6 46.4 4.8 -9.63073
994 4 1.6 49.6 4.8 -13.2041
996 3 4.8 49.6 4.8 -11.3276
998 3 8 49.6 4.8 -11.1817
1000 3 11.2 49.6 4.8 -11.2163
1002 3 14.4 49.6 4.8 -11.2613
1004 4 17.6 49.6 4.8 -13.027
1006 2 20.8 49.6 4.8 -9.66231
1008 4 24 49.6 4.8 -13.0371
1010 4 27.2 49.6 4.8 -13.1148
1012 1 30.4 49.6 4.8 -11.7288
1014 1 33.6 49.6 4.8 -11.7731
1016 4 36.8 49.6 4.8 -13.2551
1018 4 40 49.6 4.8 -13.2503
1020 3 43.2 49.6 4.8 -11.1506
1022 2 46.4 49.6 4.8 -9.72306
1024 4 49.6 49.6 4.8 -13.1127
1025 4 0 0 6.4 -13.27
1026 2 1.6 1.6 8 -9.68912
1027 1 3.2 0 6.4 -11.7069
1028 4 4.8 1.6 8 -13.0635
1029 1 6.4 0 6.4 -11.7486
1030 3 8 1.6 8 -10.9416
1031 4 9.6 0 6.4 -13.27
1032 2 11.2 1.6 8 -9.72486
1033 4 12.8 0 6.4 -13.3209
1034 4 14.4 1.6 8 -13.194
1035 1 16 0 6.4 -11.7348
1036 3 17.6 1.6 8 -11.0749
1037 1 19.2 0 6.4 -11.641
1038 4 20.8 1.6 8 -13.0644
1039 1 22.4 0 6.4 -11.604
1040 3 24 1.6 8 -11.1809
1041 4 25.6 0 6.4 -13.1466
1042 3 27.2 1.6 8 -11.2348
1043 4 28.8 0 6.4 -13.2227
1044 4 30.4 1.6 8 -13.1986
1045 3 32 0 6.4 -11.1521
1046 4 33.6 1.6 8 -13.236
1047 3 35.2 0 6.4 -11.26
1048 4 36.8 1.6 8 -13.2288
1049 4 38.4 0 6.4 -13.2607
1050 3 40 1.6 8 -11.2289
1051 4 41.6 0 6.4 -13.2714
1052 3 43.2 1.6 8 -11.2031
1053 1 44.8 0 6.4 -11.715
1054 3 46.4 1.6 8 -11.2387
1055 4 48 0 6.4 -13.2953
1056 3 49.6 1.6 8 -11.3043
1057 1 0 3.2 6.4 -11.8413
1058 3 1.6 4.8 8 -11.2009
1059 1 3.2 3.2 6.4 -11.754
1060 3 4.8 4.8 8 -11.115
1061 1 6.4 3.2 6.4 -11.6321
1062 4 8 4.8 8 -13.0612
1063 1 9.6 3.2 6.4 -11.6499
1064 3 11.2 4.8 8 -11.0363
1065 1 12.8 3.2 6.4 -11.6916
1066 3 14.4 4.8 8 -11.1244
1067 1 16 3.2 6.4 -11.7451
1068 3 17.6 4.8 8 -11.2045
1069 1 19.2 3.2 6.4 -11.6907
1070 4 20.8 4.8 8 -13.107
1071 1 22.4 3.2 6.4 -11.6747
1072 3 24 4.8 8 -11.1902
1073 4 25.6 3.2 6.4 -13.2938
1074 2 27.2 4.8 8 -9.81372
1075 4 28.8 3.2 6.4 -13.1832
1076 4 30.4 4.8 8 -13.2099
1077 4 32 3.2 6.4 -13.2582
1078 3 33.6 4.8 8 -11.1484
1079 4 35.2 3.2 6.4 -13.2763
1080 3 36.8 4.8 8 -11.0717
1081 1 38.4 3.2 6.4 -11.7139
1082 2 40 4.8 8 -9.78324
1083 1 41.6 3.2 6.4 -11.7523
1084 3 43.2 4.8 8 -11.2025
1085 1 44.8 3.2 6.4 -11.6665
1086 3 46.4 4.8 8 -11.0809
1087 4 48 3.2 6.4 -13.2724
1088 3 49.6 4.8 8 -11.2369
1089 1 0 6.4 6.4 -11.732
1090 4 1.6 8 8 -12.9719
1091 1 3.2 6.4 6.4 -11.75
1092 3 4.8 8 8 -11.1154
1093 1 6.4 6.4 6.4 -11.6763
1094 3 8 8 8 -11.0718
1095 1 9.6 6.4 6.4 -11.6314
1096 3 11.2 8 8 -11.2455
1097 1 12.8 6.4 6.4 -11.7103
1098 3 14.4 8 8 -11.0856
1099 1 16 6.4 6.4 -11.6791
1100 3 17.6 8 8 -11.2039
1101 1 19.2 6.4 6.4 -11.7122
1102 3 20.8 8 8 -11.1967
1103 4 22.4 6.4 6.4 -13.2715