ITEM: TIMESTEP
0
ITEM: NUMBER OF ATOMS
8192
ITEM: BOX BOUNDS pp pp pp
0.0000000000000000e+00 5.1200000000000003e+01
0.0000000000000000e+00 5.1200000000000003e+01
0.0000000000000000e+00 5.1200000000000003e+01
ITEM: ATOMS id type x y z c_eng
1 1 0 0 0 -11.7366
2 3 1.6 1.6 1.6 -11.2338
3 1 3.2 0 0 -11.7928
4 3 4.8 1.6 1.6 -11.1162
5 1 6.4 0 0 -11.7194
6 4 8 1.6 1.6 -13.0984
7 1 9.6 0 0 -11.7833
8 3 11.2 1.6 1.6 -11.1642
9 1 12.8 0 0 -11.8555
10 3 14.4 1.6 1.6 -11.2023
11 1 16 0 0 -11.7798
12 3 17.6 1.6 1.6 -11.1951
13 1 19.2 0 0 -11.8062
14 3 20.8 1.6 1.6 -11.2312
15 1 22.4 0 0 -11.7683
16 4 24 1.6 1.6 -13.1665
17 4 25.6 0 0 -13.2852
18 3 27.2 1.6 1.6 -11.2344
19 4 28.8 0 0 -13.2822
20 4 30.4 1.6 1.6 -13.1871
21 2 32 0 0 -9.73433
22 4 33.6 1.6 1.6 -13.1109
23 4 35.2 0 0 -13.1148
24 3 36.8 1.6 1.6 -11.1333
25 4 38.4 0 0 -13.2559
26 4 40 1.6 1.6 -13.3144
27 4 41.6 0 0 -13.3011
28 2 43.2 1.6 1.6 -9.67096
29 1 44.8 0 0 -11.6492
30 3 46.4 1.6 1.6 -11.0741
31 1 48 0 0 -11.6523
32 2 49.6 1.6 1.6 -9.7496
33 1 0 3.2 0 -11.7268
34 2 1.6 4.8 1.6 -9.66308
35 1 3.2 3.2 0 -11.7404
36 3 4.8 4.8 1.6 -11.1581
37 1 6.4 3.2 0 -11.7149
38 3 8 4.8 1.6 -11.1937
39 1 9.6 3.2 0 -11.7538
40 3 11.2 4.8 1.6 -11.2031
41 1 12.8 3.2 0 -11.7799
42 4 14.4 4.8 1.6 -13.1514
43 1 16 3.2 0 -11.7225
44 2 17.6 4.8 1.6 -9.62368
45 1 19.2 3.2 0 -11.7524
46 2 20.8 4.8 1.6 -9.72283
47 4 22.4 3.2 0 -13.1647
48 4 24 4.8 1.6 -13.1282
49 4 25.6 3.2 0 -13.2224
50 3 27.2 4.8 1.6 -11.0983
51 4 28.8 3.2 0 -13.2249
52 4 30.4 4.8 1.6 -13.1586
53 2 32 3.2 0 -9.67616
54 4 33.6 4.8 1.6 -13.0735
55 1 35.2 3.2 0 -11.5711
56 2 36.8 4.8 1.6 -9.73551
57 4 38.4 3.2 0 -13.2057
58 4 40 4.8 1.6 -13.1215
59 4 41.6 3.2 0 -13.1204
60 4 43.2 4.8 1.6 -13.0335
61 4 44.8 3.2 0 -13.2436
62 3 46.4 4.8 1.6 -11.1653
63 1 48 3.2 0 -11.7778
64 2 49.6 4.8 1.6 -9.71921
65 1 0 6.4 0 -11.6594
66 4 1.6 8 1.6 -13.076
67 1 3.2 6.4 0 -11.6708
68 4 4.8 8 1.6 -13.1185
69 4 6.4 6.4 0 -13.2394
70 3 8 8 1.6 -11.1196
71 1 9.6 6.4 0 -11.7331
72 3 11.2 8 1.6 -11.1189
73 1 12.8 6.4 0 -11.7826
74 3 14.4 8 1.6 -11.2014
75 1 16 6.4 0 -11.7023
76 3 17.6 8 1.6 -11.164
77 1 19.2 6.4 0 -11.6946
78 3 20.8 8 1.6 -11.0814
79 1 22.4 6.4 0 -11.686
80 3 24 8 1.6 -11.1616
81 4 25.6 6.4 0 -13.2751
82 2 27.2 8 1.6 -9.72718
83 4 28.8 6.4 0 -13.1141
84 2 30.4 8 1.6 -9.69712
85 2 32 6.4 0 -9.63773
86 2 33.6 8 1.6 -9.70147
87 4 35.2 6.4 0 -13.12
88 4 36.8 8 1.6 -13.277
89 4 38.4 6.4 0 -13.2599
90 3 40 8 1.6 -11.2466
91 1 41.6 6.4 0 -11.6453
92 4 43.2 8 1.6 -12.9802
93 1 44.8 6.4 0 -11.7114
94 3 46.4 8 1.6 -11.1659
95 1 48 6.4 0 -11.7707
96 3 49.6 8 1.6 -11.0774
97 1 0 9.6 0 -11.71
98 2 1.6 11.2 1.6 -9.72299
99 4 3.2 9.6 0 -13.1776
100 3 4.8 11.2 1.6 -11.1609
101 4 6.4 9.6 0 -13.2161
102 3 8 11.2 1.6 -11.1579
103 1 9.6 9.6 0 -11.6858
104 4 11.2 11.2 1.6 -13.1544
105 4 12.8 9.6 0 -13.228
106 2 14.4 11.2 1.6 -9.65161
107 1 16 9.6 0 -11.7096
108 3 17.6 11.2 1.6 -11.1629
109 4 19.2 9.6 0 -13.2276
110 3 20.8 11.2 1.6 -11.2021
111 1 22.4 9.6 0 -11.6981
112 2 24 11.2 1.6 -9.75396
113 4 25.6 9.6 0 -13.198
114 2 27.2 11.2 1.6 -9.78653
115 4 28.8 9.6 0 -13.264
116 3 30.4 11.2 1.6 -11.2264
117 4 32 9.6 0 -13.3338
118 3 33.6 11.2 1.6 -11.2308
119 4 35.2 9.6 0 -13.2251
120 3 36.8 11.2 1.6 -11.3355
121 4 38.4 9.6 0 -13.3769
122 3 40 11.2 1.6 -11.1037
123 4 41.6 9.6 0 -13.2018
124 4 43.2 11.2 1.6 -13.0206
125 1 44.8 9.6 0 -11.717
126 3 46.4 11.2 1.6 -11.1656
127 1 48 9.6 0 -11.7464
128 3 49.6 11.2 1.6 -11.1641
129 4 0 12.8 0 -13.2199
130 2 1.6 14.4 1.6 -9.65212
131 1 3.2 12.8 0 -11.6899
132 2 4.8 14.4 1.6 -9.64793
133 1 6.4 12.8 0 -11.7384
134 3 8 14.4 1.6 -11.2392
135 1 9.6 12.8 0 -11.7582
136 3 11.2 14.4 1.6 -11.1621
137 1 12.8 12.8 0 -11.6784
138 2 14.4 14.4 1.6 -9.68419
139 1 16 12.8 0 -11.6566
140 3 17.6 14.4 1.6 -11.232
141 1 19.2 12.8 0 -11.7602
142 3 20.8 14.4 1.6 -11.3379
143 4 22.4 12.8 0 -13.2366
144 3 24 14.4 1.6 -11.1944
145 4 25.6 12.8 0 -13.2728
146 3 27.2 14.4 1.6 -11.1479
147 4 28.8 12.8 0 -13.2684
148 4 30.4 14.4 1.6 -13.2793
149 4 32 12.8 0 -13.234
150 2 33.6 14.4 1.6 -9.66178
151 1 35.2 12.8 0 -11.693
152 3 36.8 14.4 1.6 -11.1949
153 4 38.4 12.8 0 -13.2718
154 2 40 14.4 1.6 -9.78927
155 1 41.6 12.8 0 -11.672
156 3 43.2 14.4 1.6 -11.1954
157 1 44.8 12.8 0 -11.7464
158 3 46.4 14.4 1.6 -11.1659
159 1 48 12.8 0 -11.7986
160 3 49.6 14.4 1.6 -11.123
161 1 0 16 0 -11.7275
162 3 1.6 17.6 1.6 -11.1221
163 1 3.2 16 0 -11.683
164 3 4.8 17.6 1.6 -11.2367
165 1 6.4 16 0 -11.781
166 3 8 17.6 1.6 -11.2034
167 1 9.6 16 0 -11.8415
168 3 11.2 17.6 1.6 -11.0823
169 1 12.8 16 0 -11.7506
170 2 14.4 17.6 1.6 -9.69501
171 1 16 16 0 -11.7634
172 3 17.6 17.6 1.6 -11.2127
173 4 19.2 16 0 -13.3214
174 2 20.8 17.6 1.6 -9.73315
175 4 22.4 16 0 -13.2578
176 4 24 17.6 1.6 -13.1328
177 4 25.6 16 0 -13.2735
178 3 27.2 17.6 1.6 -11.1969
179 1 28.8 16 0 -11.7781
180 2 30.4 17.6 1.6 -9.72976
181 4 32 16 0 -13.161
182 4 33.6 17.6 1.6 -13.116
183 1 35.2 16 0 -11.6265
184 3 36.8 17.6 1.6 -11.1575
185 4 38.4 16 0 -13.2283
186 4 40 17.6 1.6 -13.2033
187 4 41.6 16 0 -13.2421
188 3 43.2 17.6 1.6 -11.2349
189 1 44.8 16 0 -11.7237
190 3 46.4 17.6 1.6 -11.119
191 1 48 16 0 -11.7052
192 3 49.6 17.6 1.6 -11.2002
193 1 0 19.2 0 -11.6932
194 4 1.6 20.8 1.6 -13.25
195 1 3.2 19.2 0 -11.7893
196 3 4.8 20.8 1.6 -11.1728
197 1 6.4 19.2 0 -11.7557
198 4 8 20.8 1.6 -13.1942
199 1 9.6 19.2 0 -11.7066
200 2 11.2 20.8 1.6 -9.63754
201 1 12.8 19.2 0 -11.6633
202 4 14.4 20.8 1.6 -13.0747
203 4 16 19.2 0 -13.19
204 4 17.6 20.8 1.6 -13.2253
205 4 19.2 19.2 0 -13.2623
206 4 20.8 20.8 1.6 -13.1708
207 4 22.4 19.2 0 -13.244
208 4 24 20.8 1.6 -13.1607
209 4 25.6 19.2 0 -13.1993
210 3 27.2 20.8 1.6 -11.1526
211 1 28.8 19.2 0 -11.8147
212 3 30.4 20.8 1.6 -11.2681
213 4 32 19.2 0 -13.2651
214 3 33.6 20.8 1.6 -11.1964
215 1 35.2 19.2 0 -11.6628
216 3 36.8 20.8 1.6 -11.2412
217 4 38.4 19.2 0 -13.2509
218 3 40 20.8 1.6 -11.2021
219 1 41.6 19.2 0 -11.7743
220 3 43.2 20.8 1.6 -11.2395
221 1 44.8 19.2 0 -11.6471
222 2 46.4 20.8 1.6 -9.65451
223 1 48 19.2 0 -11.5673
224 4 49.6 20.8 1.6 -13.0374
225 4 0 22.4 0 -13.1403
226 4 1.6 24 1.6 -13.1031
227 4 3.2 22.4 0 -13.316
228 4 4.8 24 1.6 -13.3182
229 4 6.4 22.4 0 -13.3024
230 3 8 24 1.6 -11.2011
231 4 9.6 22.4 0 -13.2254
232 4 11.2 24 1.6 -13.2091
233 4 12.8 22.4 0 -13.0816
234 1 14.4 24 1.6 -11.7505
235 4 16 22.4 0 -13.2646
236 4 17.6 24 1.6 -13.2745
237 4 19.2 22.4 0 -13.2834
238 4 20.8 24 1.6 -13.2905
239 3 22.4 22.4 0 -11.1586
240 4 24 24 1.6 -13.1173
241 1 25.6 22.4 0 -11.6104
242 4 27.2 24 1.6 -13.1398
243 4 28.8 22.4 0 -13.2042
244 4 30.4 24 1.6 -13.1694
245 1 32 22.4 0 -11.7763
246 3 33.6 24 1.6 -11.2224
247 4 35.2 22.4 0 -13.2469
248 3 36.8 24 1.6 -11.23
249 1 38.4 22.4 0 -11.7065
250 3 40 24 1.6 -11.1235
251 1 41.6 22.4 0 -11.7464
252 3 43.2 24 1.6 -11.2054
253 1 44.8 22.4 0 -11.753
254 3 46.4 24 1.6 -11.166
255 1 48 22.4 0 -11.6679
256 3 49.6 24 1.6 -11.079
257 1 0 25.6 0 -11.6192
259 4 3.2 25.6 0 -13.1518
261 4 6.4 25.6 0 -13.2895
263 2 9.6 25.6 0 -9.80832
265 2 12.8 25.6 0 -9.79137
267 3 16 25.6 0 -11.2295
269 3 19.2 25.6 0 -11.2641
271 3 22.4 25.6 0 -11.2174
273 2 25.6 25.6 0 -9.70411
275 4 28.8 25.6 0 -13.1523
277 4 32 25.6 0 -13.2781
279 4 35.2 25.6 0 -13.284
281 1 38.4 25.6 0 -11.6045
283 1 41.6 25.6 0 -11.6607
285 1 44.8 25.6 0 -11.7961
287 1 48 25.6 0 -11.793
258 4 1.6 27.2 1.6 -13.1537
289 4 0 28.8 0 -13.244
260 4 4.8 27.2 1.6 -13.1254
291 3 3.2 28.8 0 -11.1537
262 4 8 27.2 1.6 -13.2223
293 3 6.4 28.8 0 -11.2217
264 1 11.2 27.2 1.6 -11.7082
295 3 9.6 28.8 0 -11.1468
266 1 14.4 27.2 1.6 -11.8278
297 3 12.8 28.8 0 -11.1622
268 1 17.6 27.2 1.6 -11.8256
299 3 16 28.8 0 -11.1634
270 1 20.8 27.2 1.6 -11.7531
301 2 19.2 28.8 0 -9.65137
272 1 24 27.2 1.6 -11.7111
303 4 22.4 28.8 0 -13.1193
305 3 25.6 28.8 0 -11.0987
274 4 27.2 27.2 1.6 -13.2264
307 4 28.8 28.8 0 -13.1853
276 2 30.4 27.2 1.6 -9.70743
309 1 32 28.8 0 -11.6873
278 3 33.6 27.2 1.6 -11.2891
311 4 35.2 28.8 0 -13.304
280 4 36.8 27.2 1.6 -13.2372
313 4 38.4 28.8 0 -13.2039
282 2 40 27.2 1.6 -9.63635
315 4 41.6 28.8 0 -13.2044
284 3 43.2 27.2 1.6 -11.1991
317 4 44.8 28.8 0 -13.204
286 3 46.4 27.2 1.6 -11.236
319 4 48 28.8 0 -13.3024
288 3 49.6 27.2 1.6 -11.236
290 1 1.6 30.4 1.6 -11.6273
321 3 0 32 0 -11.1079
292 1 4.8 30.4 1.6 -11.7403
323 2 3.2 32 0 -9.73276
294 4 8 30.4 1.6 -13.2967
325 3 6.4 32 0 -11.1805
296 1 11.2 30.4 1.6 -11.7107
327 4 9.6 32 0 -13.1961
298 1 14.4 30.4 1.6 -11.7841
329 2 12.8 32 0 -9.65427
300 1 17.6 30.4 1.6 -11.6892
331 3 16 32 0 -11.0362
302 1 20.8 30.4 1.6 -11.5777
333 4 19.2 32 0 -13.062
304 4 24 30.4 1.6 -13.2063
335 4 22.4 32 0 -13.021
337 4 25.6 32 0 -13.2054
306 4 27.2 30.4 1.6 -13.2468
339 4 28.8 32 0 -13.1113
308 4 30.4 30.4 1.6 -13.1381
341 1 32 32 0 -11.6396
310 3 33.6 30.4 1.6 -11.0994
343 1 35.2 32 0 -11.7368
312 3 36.8 30.4 1.6 -11.1855
345 1 38.4 32 0 -11.7256
314 4 40 30.4 1.6 -13.1936
347 4 41.6 32 0 -13.0774
316 4 43.2 30.4 1.6 -13.1164
349 4 44.8 32 0 -13.0219
318 2 46.4 30.4 1.6 -9.67008
351 2 48 32 0 -9.69445
320 2 49.6 30.4 1.6 -9.81801
322 4 1.6 33.6 1.6 -13.184
353 4 0 35.2 0 -13.0732
324 4 4.8 33.6 1.6 -13.2093
355 3 3.2 35.2 0 -11.0367
326 4 8 33.6 1.6 -13.2731
357 4 6.4 35.2 0 -13.1951
328 1 11.2 33.6 1.6 -11.6983
359 3 9.6 35.2 0 -11.1402
330 1 14.4 33.6 1.6 -11.661
361 3 12.8 35.2 0 -11.1431
332 4 17.6 33.6 1.6 -13.2064
363 4 16 35.2 0 -13.1591
334 3 20.8 33.6 1.6 -11.2076
365 4 19.2 35.2 0 -13.257
336 4 24 33.6 1.6 -13.2254
367 4 22.4 35.2 0 -13.2206
369 4 25.6 35.2 0 -13.0657
338 4 27.2 33.6 1.6 -13.105
371 4 28.8 35.2 0 -13.2395
340 2 30.4 33.6 1.6 -9.73416
373 4 32 35.2 0 -13.2457
342 4 33.6 33.6 1.6 -13.1318
375 4 35.2 35.2 0 -13.1999
344 3 36.8 33.6 1.6 -11.1452
377 4 38.4 35.2 0 -13.2527
346 4 40 33.6 1.6 -13.1582
379 4 41.6 35.2 0 -13.2232
348 1 43.2 33.6 1.6 -11.6605
381 3 44.8 35.2 0 -11.184
350 4 46.4 33.6 1.6 -13.165
383 2 48 35.2 0 -9.6627
352 4 49.6 33.6 1.6 -13.1936
354 1 1.6 36.8 1.6 -11.6393
385 3 0 38.4 0 -10.9367
356 1 4.8 36.8 1.6 -11.6429
387 3 3.2 38.4 0 -11.1968
358 1 8 36.8 1.6 -11.6186
389 2 6.4 38.4 0 -9.67469
360 4 11.2 36.8 1.6 -13.2048
391 3 9.6 38.4 0 -11.1372
362 4 14.4 36.8 1.6 -13.2091
393 4 12.8 38.4 0 -13.1646
364 3 17.6 36.8 1.6 -11.0611
395 4 16 38.4 0 -13.1648
366 3 20.8 36.8 1.6 -11.2309
397 1 19.2 38.4 0 -11.7418
368 3 24 36.8 1.6 -11.0589
399 1 22.4 38.4 0 -11.7135
401 4 25.6 38.4 0 -13.1684
370 4 27.2 36.8 1.6 -13.1287
403 4 28.8 38.4 0 -13.2456
372 3 30.4 36.8 1.6 -11.1992
405 4 32 38.4 0 -13.2903
374 4 33.6 36.8 1.6 -13.1814
407 4 35.2 38.4 0 -13.2583
376 4 36.8 36.8 1.6 -13.2991
409 4 38.4 38.4 0 -13.2411
378 4 40 36.8 1.6 -13.2136
411 4 41.6 38.4 0 -13.2284
380 4 43.2 36.8 1.6 -13.2436
413 4 44.8 38.4 0 -13.2381
382 4 46.4 36.8 1.6 -13.1815
415 4 48 38.4 0 -13.0641
384 1 49.6 36.8 1.6 -11.5221
386 4 1.6 40 1.6 -13.2387
417 4 0 41.6 0 -13.1887
388 4 4.8 40 1.6 -13.2539
419 3 3.2 41.6 0 -11.277
390 4 8 40 1.6 -13.1534
421 4 6.4 41.6 0 -13.1894
392 4 11.2 40 1.6 -13.1974
423 4 9.6 41.6 0 -13.0992
394 3 14.4 40 1.6 -10.9909
425 1 12.8 41.6 0 -11.6345
396 4 17.6 40 1.6 -13.1491
427 1 16 41.6 0 -11.7623
398 3 20.8 40 1.6 -11.0865
429 1 19.2 41.6 0 -11.78
400 4 24 40 1.6 -13.1771
431 1 22.4 41.6 0 -11.7316
433 4 25.6 41.6 0 -13.2054
402 4 27.2 40 1.6 -13.112
435 4 28.8 41.6 0 -13.2725
404 4 30.4 40 1.6 -13.2816
437 4 32 41.6 0 -13.1868
406 4 33.6 40 1.6 -13.2286
439 4 35.2 41.6 0 -13.1885
408 4 36.8 40 1.6 -13.2569
441 1 38.4 41.6 0 -11.5873
410 4 40 40 1.6 -13.1518
443 4 41.6 41.6 0 -13.2305
412 3 43.2 40 1.6 -11.2593
445 1 44.8 41.6 0 -11.8115
414 2 46.4 40 1.6 -9.72865
447 4 48 41.6 0 -13.1886
416 4 49.6 40 1.6 -13.1545
418 4 1.6 43.2 1.6 -13.317
449 4 0 44.8 0 -13.2198
420 3 4.8 43.2 1.6 -11.1655
451 4 3.2 44.8 0 -13.295
422 4 8 43.2 1.6 -13.158
453 1 6.4 44.8 0 -11.5607
424 3 11.2 43.2 1.6 -11.1148
455 1 9.6 44.8 0 -11.6352
426 3 14.4 43.2 1.6 -11.2047
457 1 12.8 44.8 0 -11.7338
428 3 17.6 43.2 1.6 -11.0382
459 1 16 44.8 0 -11.732
430 3 20.8 43.2 1.6 -11.1258
461 1 19.2 44.8 0 -11.7663
432 4 24 43.2 1.6 -13.0888
463 1 22.4 44.8 0 -11.6413
465 4 25.6 44.8 0 -13.201
434 1 27.2 43.2 1.6 -11.7275
467 3 28.8 44.8 0 -11.1845
436 1 30.4 43.2 1.6 -11.6811
469 3 32 44.8 0 -11.1479
438 4 33.6 43.2 1.6 -13.2069
471 3 35.2 44.8 0 -11.2208
440 4 36.8 43.2 1.6 -13.1665
473 4 38.4 44.8 0 -13.0451
442 2 40 43.2 1.6 -9.7075
475 1 41.6 44.8 0 -11.7465
444 3 43.2 43.2 1.6 -11.2639
477 1 44.8 44.8 0 -11.7951
446 3 46.4 43.2 1.6 -11.2212
479 4 48 44.8 0 -13.2651
448 2 49.6 43.2 1.6 -9.73555
450 3 1.6 46.4 1.6 -11.2651
481 4 0 48 0 -13.2072
452 3 4.8 46.4 1.6 -11.1136
483 1 3.2 48 0 -11.7997
454 4 8 46.4 1.6 -13.0321
485 1 6.4 48 0 -11.6619
456 3 11.2 46.4 1.6 -11.1568
487 4 9.6 48 0 -13.2636
458 4 14.4 46.4 1.6 -13.0626
489 1 12.8 48 0 -11.8062
460 4 17.6 46.4 1.6 -13.1119
491 1 16 48 0 -11.7273
462 2 20.8 46.4 1.6 -9.72823
493 4 19.2 48 0 -13.3086
464 4 24 46.4 1.6 -13.0329
495 1 22.4 48 0 -11.7328
497 4 25.6 48 0 -13.1717
466 1 27.2 46.4 1.6 -11.6787
499 4 28.8 48 0 -13.2301
468 1 30.4 46.4 1.6 -11.7231
501 2 32 48 0 -9.73511
470 1 33.6 46.4 1.6 -11.7373
503 4 35.2 48 0 -13.0659
472 1 36.8 46.4 1.6 -11.5965
505 1 38.4 48 0 -11.5712
474 4 40 46.4 1.6 -13.0991
507 4 41.6 48 0 -13.2048
476 2 43.2 46.4 1.6 -9.70337
509 1 44.8 48 0 -11.6281
478 4 46.4 46.4 1.6 -13.1519
511 4 48 48 0 -13.1274
480 2 49.6 46.4 1.6 -9.76507
482 3 1.6 49.6 1.6 -11.2349
484 3 4.8 49.6 1.6 -11.2432
486 3 8 49.6 1.6 -11.0326
488 3 11.2 49.6 1.6 -11.3094
490 3 14.4 49.6 1.6 -11.1642
492 3 17.6 49.6 1.6 -11.2699
494 3 20.8 49.6 1.6 -11.3001
496 3 24 49.6 1.6 -11.1845
498 2 27.2 49.6 1.6 -9.85864
500 4 30.4 49.6 1.6 -13.2407
502 1 33.6 49.6 1.6 -11.6044
504 4 36.8 49.6 1.6 -13.2023
506 3 40 49.6 1.6 -11.1295
508 3 43.2 49.6 1.6 -11.141
510 4 46.4 49.6 1.6 -13.0748
512 2 49.6 49.6 1.6 -9.67219
513 4 0 0 3.2 -13.2611
514 2 1.6 1.6 4.8 -9.73087
515 4 3.2 0 3.2 -13.3059
516 3 4.8 1.6 4.8 -11.1934
517 1 6.4 0 3.2 -11.723
518 3 8 1.6 4.8 -11.156
519 1 9.6 0 3.2 -11.7577
520 3 11.2 1.6 4.8 -11.277
521 1 12.8 0 3.2 -11.8414
522 3 14.4 1.6 4.8 -11.2764
523 1 16 0 3.2 -11.8697
524 3 17.6 1.6 4.8 -11.2368
525 4 19.2 0 3.2 -13.3303
526 2 20.8 1.6 4.8 -9.79039
527 4 22.4 0 3.2 -13.2275
528 4 24 1.6 4.8 -13.1831
529 4 25.6 0 3.2 -13.2977
530 4 27.2 1.6 4.8 -13.2319
531 3 28.8 0 3.2 -11.211
532 1 30.4 1.6 4.8 -11.6833
533 4 32 0 3.2 -13.0528
534 2 33.6 1.6 4.8 -9.75456
535 4 35.2 0 3.2 -13.1823
536 3 36.8 1.6 4.8 -11.2134
537 4 38.4 0 3.2 -13.3302
538 3 40 1.6 4.8 -11.1357
539 4 41.6 0 3.2 -13.3066
540 4 43.2 1.6 4.8 -13.2262
541 1 44.8 0 3.2 -11.6826
542 4 46.4 1.6 4.8 -13.1983
543 4 48 0 3.2 -13.233
544 3 49.6 1.6 4.8 -11.0602
545 4 0 3.2 3.2 -13.206
546 4 1.6 4.8 4.8 -13.1089
547 1 3.2 3.2 3.2 -11.7068
548 4 4.8 4.8 4.8 -13.1191
549 1 6.4 3.2 3.2 -11.7342
550 3 8 4.8 4.8 -11.1613
551 1 9.6 3.2 3.2 -11.7799
552 3 11.2 4.8 4.8 -11.2397
553 1 12.8 3.2 3.2 -11.8154
554 3 14.4 4.8 4.8 -11.1613
555 4 16 3.2 3.2 -13.2242
556 4 17.6 4.8 4.8 -13.1192
557 1 19.2 3.2 3.2 -11.7595
558 3 20.8 4.8 4.8 -11.0639
559 4 22.4 3.2 3.2 -13.2387
560 3 24 4.8 4.8 -11.1873
561 4 25.6 3.2 3.2 -13.202
562 4 27.2 4.8 4.8 -13.1281
563 4 28.8 3.2 3.2 -13.244
564 3 30.4 4.8 4.8 -11.0913
565 4 32 3.2 3.2 -13.213
566 3 33.6 4.8 4.8 -11.2357
567 4 35.2 3.2 3.2 -13.2243
568 4 36.8 4.8 4.8 -13.2642
569 4 38.4 3.2 3.2 -13.2967
570 4 40 4.8 4.8 -13.218
571 4 41.6 3.2 3.2 -13.1733
572 3 43.2 4.8 4.8 -11.1
573 1 44.8 3.2 3.2 -11.6777
574 3 46.4 4.8 4.8 -11.2298
575 1 48 3.2 3.2 -11.7311
576 2 49.6 4.8 4.8 -9.73044
577 4 0 6.4 3.2 -13.2482
578 3 1.6 8 4.8 -11.1137
579 4 3.2 6.4 3.2 -13.1423
580 2 4.8 8 4.8 -9.63573
581 4 6.4 6.4 3.2 -13.2205
582 4 8 8 4.8 -13.1172
583 1 9.6 6.4 3.2 -11.7659
584 4 11.2 8 4.8 -13.1097
585 4 12.8 6.4 3.2 -13.2627
586 3 14.4 8 4.8 -11.2037
587 1 16 6.4 3.2 -11.7263
588 3 17.6 8 4.8 -11.0371
589 1 19.2 6.4 3.2 -11.685
590 4 20.8 8 4.8 -13.1979
591 1 22.4 6.4 3.2 -11.7048
592 3 24 8 4.8 -11.1223
593 1 25.6 6.4 3.2 -11.7207
594 2 27.2 8 4.8 -9.61972
595 1 28.8 6.4 3.2 -11.6397
596 2 30.4 8 4.8 -9.71775
597 1 32 6.4 3.2 -11.6677
598 2 33.6 8 4.8 -9.73319
599 1 35.2 6.4 3.2 -11.6774
600 2 36.8 8 4.8 -9.76579
601 3 38.4 6.4 3.2 -11.1374
602 2 40 8 4.8 -9.76216
603 4 41.6 6.4 3.2 -13.1979
604 2 43.2 8 4.8 -9.78037
605 1 44.8 6.4 3.2 -11.7164
606 3 46.4 8 4.8 -11.1992
607 1 48 6.4 3.2 -11.8137
608 3 49.6 8 4.8 -11.2705
609 1 0 9.6 3.2 -11.735
610 3 1.6 11.2 4.8 -11.1663
611 1 3.2 9.6 3.2 -11.694
612 3 4.8 11.2 4.8 -11.2033
613 1 6.4 9.6 3.2 -11.7444
614 3 8 11.2 4.8 -11.2364
615 1 9.6 9.6 3.2 -11.6687
616 3 11.2 11.2 4.8 -11.1195
617 1 12.8 9.6 3.2 -11.7256
618 3 14.4 11.2 4.8 -11.1676
619 1 16 9.6 3.2 -11.8121
620 3 17.6 11.2 4.8 -11.124
621 1 19.2 9.6 3.2 -11.7932
622 3 20.8 11.2 4.8 -11.1617
623 1 22.4 9.6 3.2 -11.7676
624 3 24 11.2 4.8 -11.2403
625 1 25.6 9.6 3.2 -11.7391
626 3 27.2 11.2 4.8 -11.1597
627 1 28.8 9.6 3.2 -11.7214
628 3 30.4 11.2 4.8 -11.2708
629 1 32 9.6 3.2 -11.7683
630 3 33.6 11.2 4.8 -11.2005
631 4 35.2 9.6 3.2 -13.2661
632 3 36.8 11.2 4.8 -11.1989
633 4 38.4 9.6 3.2 -13.3277
634 4 40 11.2 4.8 -13.1204
635 1 41.6 9.6 3.2 -11.6672
636 3 43.2 11.2 4.8 -11.0752
637 1 44.8 9.6 3.2 -11.6791
638 3 46.4 11.2 4.8 -11.0817
639 1 48 9.6 3.2 -11.8122
640 2 49.6 11.2 4.8 -9.67746
641 1 0 12.8 3.2 -11.7065
642 3 1.6 14.4 4.8 -10.9925
643 1 3.2 12.8 3.2 -11.7205
644 2 4.8 14.4 4.8 -9.67724
645 1 6.4 12.8 3.2 -11.7941
646 3 8 14.4 4.8 -11.2387
647 4 9.6 12.8 3.2 -13.3146
648 3 11.2 14.4 4.8 -11.2002
649 1 12.8 12.8 3.2 -11.7349
650 3 14.4 14.4 4.8 -11.1213
651 1 16 12.8 3.2 -11.7409
652 4 17.6 14.4 4.8 -13.245
653 1 19.2 12.8 3.2 -11.8149
654 3 20.8 14.4 4.8 -11.0761
655 1 22.4 12.8 3.2 -11.8278
656 3 24 14.4 4.8 -11.2042
657 1 25.6 12.8 3.2 -11.7567
658 4 27.2 14.4 4.8 -13.2402
659 4 28.8 12.8 3.2 -13.3181
660 3 30.4 14.4 4.8 -11.106
661 1 32 12.8 3.2 -11.8013
662 3 33.6 14.4 4.8 -11.2707
663 1 35.2 12.8 3.2 -11.8253
664 3 36.8 14.4 4.8 -11.2378
665 1 38.4 12.8 3.2 -11.8003
666 3 40 14.4 4.8 -11.158
667 1 41.6 12.8 3.2 -11.7305
668 3 43.2 14.4 4.8 -11.2711
669 1 44.8 12.8 3.2 -11.7176
670 4 46.4 14.4 4.8 -13.0551
671 1 48 12.8 3.2 -11.6798
672 4 49.6 14.4 4.8 -12.9596
673 1 0 16 3.2 -11.7173
674 4 1.6 17.6 4.8 -13.0629
675 1 3.2 16 3.2 -11.6783
676 2 4.8 17.6 4.8 -9.58499
677 1 6.4 16 3.2 -11.7658
678 3 8 17.6 4.8 -11.1238
679 1 9.6 16 3.2 -11.7935
680 4 11.2 17.6 4.8 -13.0323
681 1 12.8 16 3.2 -11.6704
682 4 14.4 17.6 4.8 -13.1125
683 4 16 16 3.2 -13.248
684 2 17.6 17.6 4.8 -9.74179
685 4 19.2 16 3.2 -13.2626
686 4 20.8 17.6 4.8 -13.1725
687 1 22.4 16 3.2 -11.7456
688 3 24 17.6 4.8 -11.1103
689 1 25.6 16 3.2 -11.7398
690 2 27.2 17.6 4.8 -9.72297
691 4 28.8 16 3.2 -13.1918
692 4 30.4 17.6 4.8 -13.232
693 4 32 16 3.2 -13.2437
694 3 33.6 17.6 4.8 -11.2221
695 1 35.2 16 3.2 -11.7914
696 3 36.8 17.6 4.8 -11.159
697 4 38.4 16 3.2 -13.2743
698 4 40 17.6 4.8 -13.0695
699 4 41.6 16 3.2 -13.3055
700 3 43.2 17.6 4.8 -11.2329
701 1 44.8 16 3.2 -11.8107
702 3 46.4 17.6 4.8 -11.2336
703 1 48 16 3.2 -11.7225
704 3 49.6 17.6 4.8 -11.1122
705 4 0 19.2 3.2 -13.1798
706 2 1.6 20.8 4.8 -9.667
707 4 3.2 19.2 3.2 -13.2756
708 4 4.8 20.8 4.8 -13.2276
709 4 6.4 19.2 3.2 -13.248
710 2 8 20.8 4.8 -9.73416
711 1 9.6 19.2 3.2 -11.6237
712 4 11.2 20.8 4.8 -13.098
713 1 12.8 19.2 3.2 -11.5924
714 4 14.4 20.8 4.8 -13.1742
715 4 16 19.2 3.2 -13.1852
716 4 17.6 20.8 4.8 -13.2025
717 4 19.2 19.2 3.2 -13.1392
718 4 20.8 20.8 4.8 -13.1458
719 4 22.4 19.2 3.2 -13.1296
720 3 24 20.8 4.8 -11.213
721 1 25.6 19.2 3.2 -11.7542
722 3 27.2 20.8 4.8 -11.3357
723 1 28.8 19.2 3.2 -11.7665
724 3 30.4 20.8 4.8 -11.111
725 4 32 19.2 3.2 -13.2824
726 2 33.6 20.8 4.8 -9.8041
727 1 35.2 19.2 3.2 -11.7725
728 3 36.8 20.8 4.8 -11.167
729 1 38.4 19.2 3.2 -11.7399
730 2 40 20.8 4.8 -9.68768
731 4 41.6 19.2 3.2 -13.2454
732 3 43.2 20.8 4.8 -11.203
733 1 44.8 19.2 3.2 -11.812
734 2 46.4 20.8 4.8 -9.65583
735 4 48 19.2 3.2 -13.2348
736 4 49.6 20.8 4.8 -13.122
737 4 0 22.4 3.2 -13.1812
738 4 1.6 24 4.8 -13.1726
739 3 3.2 22.4 3.2 -11.1843
740 2 4.8 24 4.8 -9.73317
741 4 6.4 22.4 3.2 -13.3339
742 2 8 24 4.8 -9.79544
743 4 9.6 22.4 3.2 -13.1946
744 1 11.2 24 4.8 -11.6109
745 2 12.8 22.4 3.2 -9.67317
746 1 14.4 24 4.8 -11.6736
747 3 16 22.4 3.2 -11.1091
748 1 17.6 24 4.8 -11.7554
749 4 19.2 22.4 3.2 -13.1743
750 4 20.8 24 4.8 -13.2363
751 4 22.4 22.4 3.2 -13.1514
752 1 24 24 4.8 -11.6497
753 4 25.6 22.4 3.2 -13.1997
754 3 27.2 24 4.8 -11.0921
755 4 28.8 22.4 3.2 -13.2689
756 4 30.4 24 4.8 -13.1713
757 1 32 22.4 3.2 -11.7263
758 2 33.6 24 4.8 -9.73178
759 1 35.2 22.4 3.2 -11.809
760 3 36.8 24 4.8 -11.1575
761 1 38.4 22.4 3.2 -11.7961
762 2 40 24 4.8 -9.68768
763 1 41.6 22.4 3.2 -11.7965
764 3 43.2 24 4.8 -11.167
765 1 44.8 22.4 3.2 -11.7508
766 2 46.4 24 4.8 -9.61534
767 1 48 22.4 3.2 -11.6633
768 3 49.6 24 4.8 -11.0835
769 1 0 25.6 3.2 -11.7064
771 4 3.2 25.6 3.2 -13.1871
773 4 6.4 25.6 3.2 -13.141
775 4 9.6 25.6 3.2 -13.0969
777 3 12.8 25.6 3.2 -11.1251
779 3 16 25.6 3.2 -11.2007
781 3 19.2 25.6 3.2 -11.2361
783 2 22.4 25.6 3.2 -9.72272
785 4 25.6 25.6 3.2 -13.1482
787 4 28.8 25.6 3.2 -13.1486
789 4 32 25.6 3.2 -13.1827
791 4 35.2 25.6 3.2 -13.2957
793 4 38.4 25.6 3.2 -13.1741
795 1 41.6 25.6 3.2 -11.7552
797 1 44.8 25.6 3.2 -11.7809
799 1 48 25.6 3.2 -11.7807
770 3 1.6 27.2 4.8 -11.1459
801 4 0 28.8 3.2 -13.2487
772 4 4.8 27.2 4.8 -13.2253
803 2 3.2 28.8 3.2 -9.70139
774 4 8 27.2 4.8 -13.1493
805 4 6.4 28.8 3.2 -13.2075
776 1 11.2 27.2 4.8 -11.6705
807 4 9.6 28.8 3.2 -13.1253
778 1 14.4 27.2 4.8 -11.7106
809 3 12.8 28.8 3.2 -11.1656
780 1 17.6 27.2 4.8 -11.7272
811 3 16 28.8 3.2 -11.164
782 1 20.8 27.2 4.8 -11.7996
813 3 19.2 28.8 3.2 -11.1642
784 1 24 27.2 4.8 -11.6631
815 3 22.4 28.8 3.2 -11.04
817 3 25.6 28.8 3.2 -11.2212
786 4 27.2 27.2 4.8 -13.2751
819 2 28.8 28.8 3.2 -9.79469
788 4 30.4 27.2 4.8 -13.1382
821 4 32 28.8 3.2 -13.1903
790 4 33.6 27.2 4.8 -13.1239
823 4 35.2 28.8 3.2 -13.2263
792 2 36.8 27.2 4.8 -9.63418
825 1 38.4 28.8 3.2 -11.5673
794 4 40 27.2 4.8 -12.9817
827 4 41.6 28.8 3.2 -13.1763
796 3 43.2 27.2 4.8 -11.1252
829 1 44.8 28.8 3.2 -11.6895
798 2 46.4 27.2 4.8 -9.61521
831 1 48 28.8 3.2 -11.7699
800 3 49.6 27.2 4.8 -11.2012
802 4 1.6 30.4 4.8 -13.2273
833 4 0 32 3.2 -13.2706
804 4 4.8 30.4 4.8 -13.1704
835 4 3.2 32 3.2 -13.1465
806 4 8 30.4 4.8 -13.2693
837 3 6.4 32 3.2 -11.2113
808 1 11.2 30.4 4.8 -11.7775
839 3 9.6 32 3.2 -11.1063
810 1 14.4 30.4 4.8 -11.7742
841 3 12.8 32 3.2 -11.1593
812 4 17.6 30.4 4.8 -13.1859
843 2 16 32 3.2 -9.72941
814 1 20.8 30.4 4.8 -11.6424
845 4 19.2 32 3.2 -13.1566
816 1 24 30.4 4.8 -11.6895
847 4 22.4 32 3.2 -13.1984
849 3 25.6 32 3.2 -11.1769
818 4 27.2 30.4 4.8 -13.2742
851 4 28.8 32 3.2 -13.1342
820 4 30.4 30.4 4.8 -13.1668
853 4 32 32 3.2 -13.1653
822 4 33.6 30.4 4.8 -13.1458
855 4 35.2 32 3.2 -13.1917
824 4 36.8 30.4 4.8 -13.1825
857 4 38.4 32 3.2 -13.2427
826 4 40 30.4 4.8 -13.0593
859 3 41.6 32 3.2 -11.0915
828 2 43.2 30.4 4.8 -9.6997
861 1 44.8 32 3.2 -11.5684
830 2 46.4 30.4 4.8 -9.65743
863 4 48 32 3.2 -13.2226
832 3 49.6 30.4 4.8 -11.2302
834 3 1.6 33.6 4.8 -11.1072
865 4 0 35.2 3.2 -13.144
836 4 4.8 33.6 4.8 -13.1859
867 4 3.2 35.2 3.2 -13.2078
838 4 8 33.6 4.8 -13.1763
869 2 6.4 35.2 3.2 -9.67073
840 4 11.2 33.6 4.8 -13.2481
871 4 9.6 35.2 3.2 -13.1935
842 4 14.4 33.6 4.8 -13.2401
873 4 12.8 35.2 3.2 -13.2092
844 4 17.6 33.6 4.8 -13.1397
875 4 16 35.2 3.2 -13.1329
846 3 20.8 33.6 4.8 -11.0885
877 4 19.2 35.2 3.2 -13.2543
848 4 24 33.6 4.8 -13.2669
879 4 22.4 35.2 3.2 -13.2523
881 4 25.6 35.2 3.2 -13.2254
850 4 27.2 33.6 4.8 -13.262
883 4 28.8 35.2 3.2 -13.1521
852 4 30.4 33.6 4.8 -13.2088
885 4 32 35.2 3.2 -13.1883
854 4 33.6 33.6 4.8 -13.1653
887 4 35.2 35.2 3.2 -13.1916
856 4 36.8 33.6 4.8 -13.2946
889 4 38.4 35.2 3.2 -13.2733
858 4 40 33.6 4.8 -13.2393
891 3 41.6 35.2 3.2 -11.1407
860 4 43.2 33.6 4.8 -13.2416
893 3 44.8 35.2 3.2 -11.1739
862 4 46.4 33.6 4.8 -13.1737
895 4 48 35.2 3.2 -13.2399
864 3 49.6 33.6 4.8 -11.2655
866 2 1.6 36.8 4.8 -9.79299
897 4 0 38.4 3.2 -13.232
868 2 4.8 36.8 4.8 -9.64039
899 2 3.2 38.4 3.2 -9.70618
870 4 8 36.8 4.8 -13.1914
901 4 6.4 38.4 3.2 -13.1247
872 3 11.2 36.8 4.8 -11.1904
903 4 9.6 38.4 3.2 -13.2139
874 3 14.4 36.8 4.8 -11.1865
905 1 12.8 38.4 3.2 -11.7099
876 4 17.6 36.8 4.8 -13.2051
907 1 16 38.4 3.2 -11.7303
878 4 20.8 36.8 4.8 -13.1988
909 1 19.2 38.4 3.2 -11.6938
880 4 24 36.8 4.8 -13.1916
911 1 22.4 38.4 3.2 -11.713
913 4 25.6 38.4 3.2 -13.1646
882 4 27.2 36.8 4.8 -13.1649
915 4 28.8 38.4 3.2 -13.2321
884 1 30.4 36.8 4.8 -11.7541
917 3 32 38.4 3.2 -11.1884
886 1 33.6 36.8 4.8 -11.7128
919 3 35.2 38.4 3.2 -11.1818
888 4 36.8 36.8 4.8 -13.2678
921 3 38.4 38.4 3.2 -11.1371
890 1 40 36.8 4.8 -11.6445
923 4 41.6 38.4 3.2 -13.2115
892 4 43.2 36.8 4.8 -13.2384
925 1 44.8 38.4 3.2 -11.7356
894 3 46.4 36.8 4.8 -11.1531
927 1 48 38.4 3.2 -11.6549
896 3 49.6 36.8 4.8 -11.2335
898 2 1.6 40 4.8 -9.69918
929 4 0 41.6 3.2 -13.1606
900 4 4.8 40 4.8 -13.0911
931 4 3.2 41.6 3.2 -13.2255
902 3 8 40 4.8 -11.1524
933 4 6.4 41.6 3.2 -13.2036
904 3 11.2 40 4.8 -11.2007
935 4 9.6 41.6 3.2 -13.2984
906 3 14.4 40 4.8 -11.2427
937 1 12.8 41.6 3.2 -11.7974
908 3 17.6 40 4.8 -11.0719
939 1 16 41.6 3.2 -11.7412
910 3 20.8 40 4.8 -11.1996
941 1 19.2 41.6 3.2 -11.7246
912 3 24 40 4.8 -11.0978
943 1 22.4 41.6 3.2 -11.7093
945 2 25.6 41.6 3.2 -9.73694
914 4 27.2 40 4.8 -13.2816
947 3 28.8 41.6 3.2 -11.1181
916 1 30.4 40 4.8 -11.7207
949 2 32 41.6 3.2 -9.62802
918 1 33.6 40 4.8 -11.7183
951 2 35.2 41.6 3.2 -9.79022
920 4 36.8 40 4.8 -13.2991
953 2 38.4 41.6 3.2 -9.73684
922 1 40 40 4.8 -11.6685
955 4 41.6 41.6 3.2 -13.2535
924 3 43.2 40 4.8 -11.1534
957 4 44.8 41.6 3.2 -13.2993
926 3 46.4 40 4.8 -11.2377
959 4 48 41.6 3.2 -13.2672
928 3 49.6 40 4.8 -11.1883
930 2 1.6 43.2 4.8 -9.70381
961 4 0 44.8 3.2 -13.2615
932 4 4.8 43.2 4.8 -13.1592
963 4 3.2 44.8 3.2 -13.2944
934 3 8 43.2 4.8 -11.1892
965 4 6.4 44.8 3.2 -13.1713
936 3 11.2 43.2 4.8 -11.2346
967 4 9.6 44.8 3.2 -13.2389
938 3 14.4 43.2 4.8 -11.1591
969 1 12.8 44.8 3.2 -11.7861
940 4 17.6 43.2 4.8 -13.1915
971 4 16 44.8 3.2 -13.2218
942 3 20.8 43.2 4.8 -11.1252
973 1 19.2 44.8 3.2 -11.7297
944 4 24 43.2 4.8 -13.2428
975 1 22.4 44.8 3.2 -11.6448
977 3 25.6 44.8 3.2 -11.0295
946 1 27.2 43.2 4.8 -11.7535
979 3 28.8 44.8 3.2 -11.1671
948 1 30.4 43.2 4.8 -11.6487
981 4 32 44.8 3.2 -13.1099
950 1 33.6 43.2 4.8 -11.6789
983 3 35.2 44.8 3.2 -11.1585
952 1 36.8 43.2 4.8 -11.7857
985 4 38.4 44.8 3.2 -13.1385
954 4 40 43.2 4.8 -13.1608
987 4 41.6 44.8 3.2 -13.1128
956 4 43.2 43.2 4.8 -13.0836
989 4 44.8 44.8 3.2 -13.2122
958 4 46.4 43.2 4.8 -13.1598
991 4 48 44.8 3.2 -13.2643
960 4 49.6 43.2 4.8 -13.1235
962 3 1.6 46.4 4.8 -11.1473
993 1 0 48 3.2 -11.6925
964 4 4.8 46.4 4.8 -13.125
995 1 3.2 48 3.2 -11.7209
966 4 8 46.4 4.8 -13.0817
997 1 6.4 48 3.2 -11.6236
968 2 11.2 46.4 4.8 -9.75283
999 4 9.6 48 3.2 -13.2361
970 3 14.4 46.4 4.8 -11.1952
1001 1 12.8 48 3.2 -11.7685
972 3 17.6 46.4 4.8 -11.1897
1003 1 16 48 3.2 -11.7484
974 3 20.8 46.4 4.8 -11.1931
1005 4 19.2 48 3.2 -13.3281
976 4 24 46.4 4.8 -13.0903
1007 4 22.4 48 3.2 -13.2023
1009 4 25.6 48 3.2 -13.1527
978 1 27.2 46.4 4.8 -11.7024
1011 3 28.8 48 3.2 -11.1984
980 1 30.4 46.4 4.8 -11.7664
1013 3 32 48 3.2 -11.1214
982 4 33.6 46.4 4.8 -13.2807
1015 3 35.2 48 3.2 -11.1551
984 1 36.8 46.4 4.8 -11.7934
1017 2 38.4 48 3.2 -9.73199
986 4 40 46.4 4.8 -13.1638
1019 4 41.6 48 3.2 -13.2937
988 4 43.2 46.4 4.8 -13.144
1021 1 44.8 48 3.2 -11.6767
990 3 46.4 46.4 4.8 -11.0996
1023 4 48 48 3.2 -13.1987
992 2 49.6 46.4 4.8 -9.73758
994 4 1.6 49.6 4.8 -13.0313
996 2 4.8 49.6 4.8 -9.66468
998 4 8 49.6 4.8 -13.1286
1000 3 11.2 49.6 4.8 -11.158
1002 3 14.4 49.6 4.8 -11.2429
1004 3 17.6 49.6 4.8 -11.2724
1006 4 20.8 49.6 4.8 -13.2361
1008 4 24 49.6 4.8 -13.1147
1010 1 27.2 49.6 4.8 -11.7232
1012 1 30.4 49.6 4.8 -11.7437
1014 1 33.6 49.6 4.8 -11.6579
1016 4 36.8 49.6 4.8 -13.2491
1018 4 40 49.6 4.8 -13.3644
1020 3 43.2 49.6 4.8 -11.1477
1022 3 46.4 49.6 4.8 -11.1091
1024 4 49.6 49.6 4.8 -13.1078
1025 4 0 0 6.4 -13.1191
1026 4 1.6 1.6 8 -13.1926
1027 4 3.2 0 6.4 -13.1861
1028 3 4.8 1.6 8 -11.193
1029 4 6.4 0 6.4 -13.2655
1030 3 8 1.6 8 -11.1958
1031 4 9.6 0 6.4 -13.2786
1032 3 11.2 1.6 8 -11.2379
1033 1 12.8 0 6.4 -11.7978
1034 3 14.4 1.6 8 -11.277
1035 1 16 0 6.4 -11.8411
1036 3 17.6 1.6 8 -11.2023
1037 1 19.2 0 6.4 -11.7593
1038 2 20.8 1.6 8 -9.70221
1039 4 22.4 0 6.4 -13.1543
1040 4 24 1.6 8 -13.2596
1041 3 25.6 0 6.4 -11.1423
1042 4 27.2 1.6 8 -13.2608
1043 3 28.8 0 6.4 -11.1926
1044 4 30.4 1.6 8 -13.3033
1045 4 32 0 6.4 -13.1624
1046 4 33.6 1.6 8 -13.2682
1047 4 35.2 0 6.4 -13.152
1048 4 36.8 1.6 8 -13.2572
1049 4 38.4 0 6.4 -13.2749
1050 2 40 1.6 8 -9.7943
1051 4 41.6 0 6.4 -13.3039
1052 3 43.2 1.6 8 -11.1307
1053 4 44.8 0 6.4 -13.2428
1054 3 46.4 1.6 8 -11.2407
1055 4 48 0 6.4 -13.2193
1056 4 49.6 1.6 8 -13.2149
1057 1 0 3.2 6.4 -11.6055
1058 3 1.6 4.8 8 -11.0141
1059 1 3.2 3.2 6.4 -11.6699
1060 3 4.8 4.8 8 -11.1929
1061 1 6.4 3.2 6.4 -11.7927
1062 3 8 4.8 8 -11.2381
1063 1 9.6 3.2 6.4 -11.8701
1064 3 11.2 4.8 8 -11.2392
1065 1 12.8 3.2 6.4 -11.8412
1066 3 14.4 4.8 8 -11.1628
1067 1 16 3.2 6.4 -11.7657
1068 4 17.6 4.8 8 -13.0017
1069 4 19.2 3.2 6.4 -13.1824
1070 4 20.8 4.8 8 -13.1649
1071 4 22.4 3.2 6.4 -13.2651
1072 3 24 4.8 8 -11.1015
1073 4 25.6 3.2 6.4 -13.2223
1074 4 27.2 4.8 8 -12.9662
1075 4 28.8 3.2 6.4 -13.1959
1076 4 30.4 4.8 8 -13.2471
1077 3 32 3.2 6.4 -11.2458
1078 2 33.6 4.8 8 -9.8373
1079 4 35.2 3.2 6.4 -13.3244
1080 3 36.8 4.8 8 -11.101
1081 1 38.4 3.2 6.4 -11.6837
1082 2 40 4.8 8 -9.70497
1083 4 41.6 3.2 6.4 -13.2827
1084 4 43.2 4.8 8 -13.3139
1085 4 44.8 3.2 6.4 -13.2961
1086 3 46.4 4.8 8 -11.2068
1087 1 48 3.2 6.4 -11.7291
1088 4 49.6 4.8 8 -13.2545
1089 4 0 6.4 6.4 -13.281
1090 4 1.6 8 8 -13.206
1091 4 3.2 6.4 6.4 -13.177
1092 4 4.8 8 8 -13.1295
1093 1 6.4 6.4 6.4 -11.7286
1094 3 8 8 8 -11.199
1095 4 9.6 6.4 6.4 -13.2475
1096 3 11.2 8 8 -11.2026
1097 1 12.8 6.4 6.4 -11.8153
1098 3 14.4 8 8 -11.1634
1099 1 16 6.4 6.4 -11.6915
1100 4 17.6 8 8 -13.1176
1101 4 19.2 6.4 6.4 -13.1358
1102 3 20.8 8 8 -11.0179
1103 1 22.4 6.4 6.4 -11.765