ITEM: TIMESTEP
0
ITEM: NUMBER OF ATOMS
8192
ITEM: BOX BOUNDS pp pp pp
0.0000000000000000e+00 5.1200000000000003e+01
0.0000000000000000e+00 5.1200000000000003e+01
0.0000000000000000e+00 5.1200000000000003e+01
ITEM: ATOMS id type x y z c_eng
1 1 0 0 0 -11.6901
2 3 1.6 1.6 1.6 -11.2063
3 1 3.2 0 0 -11.7492
4 3 4.8 1.6 1.6 -11.1149
5 4 6.4 0 0 -13.276
6 3 8 1.6 1.6 -11.1921
7 4 9.6 0 0 -13.288
8 4 11.2 1.6 1.6 -13.1061
9 1 12.8 0 0 -11.7978
10 3 14.4 1.6 1.6 -11.0812
11 1 16 0 0 -11.78
12 3 17.6 1.6 1.6 -11.1588
13 1 19.2 0 0 -11.7578
14 2 20.8 1.6 1.6 -9.85093
15 4 22.4 0 0 -13.3479
16 3 24 1.6 1.6 -11.2455
17 4 25.6 0 0 -13.2242
18 4 27.2 1.6 1.6 -13.1837
19 2 28.8 0 0 -9.70241
20 1 30.4 1.6 1.6 -11.5765
21 4 32 0 0 -13.2002
22 4 33.6 1.6 1.6 -13.2054
23 3 35.2 0 0 -11.1628
24 2 36.8 1.6 1.6 -9.8208
25 4 38.4 0 0 -13.3632
26 3 40 1.6 1.6 -11.2203
27 4 41.6 0 0 -13.2595
28 3 43.2 1.6 1.6 -11.272
29 1 44.8 0 0 -11.6047
30 2 46.4 1.6 1.6 -9.66156
31 1 48 0 0 -11.6476
32 3 49.6 1.6 1.6 -11.1643
33 1 0 3.2 0 -11.7989
34 3 1.6 4.8 1.6 -11.1235
35 1 3.2 3.2 0 -11.7134
36 4 4.8 4.8 1.6 -13.1015
37 4 6.4 3.2 0 -13.2508
38 3 8 4.8 1.6 -11.1206
39 4 9.6 3.2 0 -13.2456
40 4 11.2 4.8 1.6 -13.0173
41 1 12.8 3.2 0 -11.7322
42 3 14.4 4.8 1.6 -11.126
43 1 16 3.2 0 -11.7318
44 4 17.6 4.8 1.6 -13.078
45 4 19.2 3.2 0 -13.2068
46 3 20.8 4.8 1.6 -11.0646
47 4 22.4 3.2 0 -13.2947
48 4 24 4.8 1.6 -13.2771
49 4 25.6 3.2 0 -13.2924
50 2 27.2 4.8 1.6 -9.67215
51 2 28.8 3.2 0 -9.73472
52 4 30.4 4.8 1.6 -13.1113
53 2 32 3.2 0 -9.60503
54 4 33.6 4.8 1.6 -13.1417
55 4 35.2 3.2 0 -13.1679
56 4 36.8 4.8 1.6 -13.1624
57 4 38.4 3.2 0 -13.2256
58 4 40 4.8 1.6 -13.2042
59 1 41.6 3.2 0 -11.7734
60 3 43.2 4.8 1.6 -11.1586
61 1 44.8 3.2 0 -11.7407
62 3 46.4 4.8 1.6 -11.2048
63 1 48 3.2 0 -11.7806
64 3 49.6 4.8 1.6 -11.242
65 1 0 6.4 0 -11.8123
66 3 1.6 8 1.6 -11.1238
67 1 3.2 6.4 0 -11.754
68 3 4.8 8 1.6 -11.127
69 1 6.4 6.4 0 -11.7734
70 3 8 8 1.6 -11.1648
71 1 9.6 6.4 0 -11.7392
72 2 11.2 8 1.6 -9.65902
73 1 12.8 6.4 0 -11.7466
74 3 14.4 8 1.6 -11.1607
75 1 16 6.4 0 -11.6548
76 2 17.6 8 1.6 -9.70246
77 4 19.2 6.4 0 -13.1334
78 3 20.8 8 1.6 -11.1989
79 1 22.4 6.4 0 -11.7281
80 3 24 8 1.6 -11.233
81 4 25.6 6.4 0 -13.2965
82 3 27.2 8 1.6 -11.1885
83 4 28.8 6.4 0 -13.2309
84 2 30.4 8 1.6 -9.7626
85 4 32 6.4 0 -13.1944
86 3 33.6 8 1.6 -11.2138
87 4 35.2 6.4 0 -13.2219
88 3 36.8 8 1.6 -11.2225
89 4 38.4 6.4 0 -13.2605
90 3 40 8 1.6 -11.1914
91 4 41.6 6.4 0 -13.3329
92 3 43.2 8 1.6 -11.2326
93 1 44.8 6.4 0 -11.7977
94 3 46.4 8 1.6 -11.242
95 1 48 6.4 0 -11.8417
96 3 49.6 8 1.6 -11.2423
97 1 0 9.6 0 -11.7986
98 2 1.6 11.2 1.6 -9.7555
99 1 3.2 9.6 0 -11.74
100 2 4.8 11.2 1.6 -9.6921
101 1 6.4 9.6 0 -11.7178
102 4 8 11.2 1.6 -13.1513
103 1 9.6 9.6 0 -11.7396
104 2 11.2 11.2 1.6 -9.66804
105 1 12.8 9.6 0 -11.7062
106 4 14.4 11.2 1.6 -13.1114
107 1 16 9.6 0 -11.6177
108 4 17.6 11.2 1.6 -13.0715
109 4 19.2 9.6 0 -13.2362
110 3 20.8 11.2 1.6 -11.182
111 1 22.4 9.6 0 -11.7188
112 2 24 11.2 1.6 -9.76154
113 4 25.6 9.6 0 -13.2238
114 4 27.2 11.2 1.6 -13.206
115 4 28.8 9.6 0 -13.1577
116 2 30.4 11.2 1.6 -9.73604
117 4 32 9.6 0 -13.263
118 4 33.6 11.2 1.6 -13.3175
119 4 35.2 9.6 0 -13.2405
120 3 36.8 11.2 1.6 -11.1469
121 1 38.4 9.6 0 -11.7402
122 2 40 11.2 1.6 -9.72502
123 1 41.6 9.6 0 -11.7911
124 4 43.2 11.2 1.6 -13.0787
125 1 44.8 9.6 0 -11.7799
126 3 46.4 11.2 1.6 -11.2023
127 1 48 9.6 0 -11.8416
128 3 49.6 11.2 1.6 -11.2734
129 4 0 12.8 0 -13.2409
130 4 1.6 14.4 1.6 -13.028
131 4 3.2 12.8 0 -13.1428
132 2 4.8 14.4 1.6 -9.75319
133 1 6.4 12.8 0 -11.6781
134 3 8 14.4 1.6 -11.1147
135 1 9.6 12.8 0 -11.6755
136 3 11.2 14.4 1.6 -11.1166
137 1 12.8 12.8 0 -11.6991
138 3 14.4 14.4 1.6 -11.1064
139 4 16 12.8 0 -13.1424
140 4 17.6 14.4 1.6 -13.0862
141 4 19.2 12.8 0 -13.1999
142 4 20.8 14.4 1.6 -13.1596
143 4 22.4 12.8 0 -13.1592
144 4 24 14.4 1.6 -13.1235
145 4 25.6 12.8 0 -13.1466
146 2 27.2 14.4 1.6 -9.60134
147 4 28.8 12.8 0 -13.2176
148 4 30.4 14.4 1.6 -13.175
149 2 32 12.8 0 -9.75898
150 4 33.6 14.4 1.6 -13.1348
151 1 35.2 12.8 0 -11.698
152 2 36.8 14.4 1.6 -9.73603
153 1 38.4 12.8 0 -11.6802
154 4 40 14.4 1.6 -13.2031
155 4 41.6 12.8 0 -13.223
156 4 43.2 14.4 1.6 -13.1288
157 1 44.8 12.8 0 -11.7692
158 3 46.4 14.4 1.6 -11.2404
159 1 48 12.8 0 -11.8555
160 3 49.6 14.4 1.6 -11.1553
161 1 0 16 0 -11.6764
162 2 1.6 17.6 1.6 -9.62091
163 1 3.2 16 0 -11.6725
164 3 4.8 17.6 1.6 -11.1249
165 1 6.4 16 0 -11.7388
166 3 8 17.6 1.6 -11.1621
167 1 9.6 16 0 -11.6502
168 4 11.2 17.6 1.6 -13.1603
169 4 12.8 16 0 -13.2222
170 4 14.4 17.6 1.6 -13.1963
171 1 16 16 0 -11.6716
172 3 17.6 17.6 1.6 -11.1089
173 1 19.2 16 0 -11.6792
174 3 20.8 17.6 1.6 -11.1984
175 4 22.4 16 0 -13.2342
176 3 24 17.6 1.6 -11.0247
177 4 25.6 16 0 -13.2383
178 4 27.2 17.6 1.6 -13.1607
179 4 28.8 16 0 -13.2356
180 3 30.4 17.6 1.6 -11.1826
181 2 32 16 0 -9.7826
182 2 33.6 17.6 1.6 -9.78364
183 4 35.2 16 0 -13.1994
184 3 36.8 17.6 1.6 -11.1133
185 4 38.4 16 0 -13.2927
186 3 40 17.6 1.6 -11.2298
187 4 41.6 16 0 -13.2672
188 4 43.2 17.6 1.6 -13.1646
189 4 44.8 16 0 -13.2946
190 3 46.4 17.6 1.6 -11.1608
191 1 48 16 0 -11.7928
192 4 49.6 17.6 1.6 -13.0619
193 1 0 19.2 0 -11.7468
194 3 1.6 20.8 1.6 -11.1975
195 1 3.2 19.2 0 -11.7371
196 3 4.8 20.8 1.6 -11.1557
197 1 6.4 19.2 0 -11.6927
198 2 8 20.8 1.6 -9.73133
199 4 9.6 19.2 0 -13.1689
200 4 11.2 20.8 1.6 -13.1123
201 3 12.8 19.2 0 -11.0008
202 4 14.4 20.8 1.6 -13.1487
203 4 16 19.2 0 -13.2655
204 2 17.6 20.8 1.6 -9.8448
205 4 19.2 19.2 0 -13.2697
206 2 20.8 20.8 1.6 -9.66921
207 1 22.4 19.2 0 -11.6473
208 4 24 20.8 1.6 -13.0426
209 1 25.6 19.2 0 -11.6076
210 4 27.2 20.8 1.6 -13.0569
211 4 28.8 19.2 0 -13.2634
212 3 30.4 20.8 1.6 -11.2223
213 4 32 19.2 0 -13.3358
214 3 33.6 20.8 1.6 -11.1195
215 1 35.2 19.2 0 -11.7378
216 3 36.8 20.8 1.6 -11.2789
217 4 38.4 19.2 0 -13.3399
218 3 40 20.8 1.6 -11.1199
219 1 41.6 19.2 0 -11.7707
220 3 43.2 20.8 1.6 -11.1632
221 4 44.8 19.2 0 -13.2568
222 3 46.4 20.8 1.6 -11.2039
223 1 48 19.2 0 -11.7509
224 3 49.6 20.8 1.6 -11.2005
225 4 0 22.4 0 -13.2756
226 4 1.6 24 1.6 -13.2015
227 4 3.2 22.4 0 -13.2425
228 3 4.8 24 1.6 -11.1837
229 1 6.4 22.4 0 -11.6452
230 4 8 24 1.6 -13.2568
231 4 9.6 22.4 0 -13.1487
232 4 11.2 24 1.6 -13.2451
233 4 12.8 22.4 0 -13.1857
234 4 14.4 24 1.6 -13.2066
235 2 16 22.4 0 -9.81482
236 4 17.6 24 1.6 -13.2759
237 4 19.2 22.4 0 -13.1772
238 1 20.8 24 1.6 -11.5638
239 4 22.4 22.4 0 -12.9415
240 1 24 24 1.6 -11.6295
241 4 25.6 22.4 0 -13.2223
242 4 27.2 24 1.6 -13.1982
243 4 28.8 22.4 0 -13.1578
244 4 30.4 24 1.6 -13.084
245 4 32 22.4 0 -13.2079
246 2 33.6 24 1.6 -9.69131
247 1 35.2 22.4 0 -11.7228
248 3 36.8 24 1.6 -11.1661
249 1 38.4 22.4 0 -11.7997
250 2 40 24 1.6 -9.73565
251 1 41.6 22.4 0 -11.7843
252 3 43.2 24 1.6 -11.1224
253 1 44.8 22.4 0 -11.7272
254 3 46.4 24 1.6 -11.1197
255 1 48 22.4 0 -11.7116
256 3 49.6 24 1.6 -11.2981
257 4 0 25.6 0 -13.2789
259 1 3.2 25.6 0 -11.5973
261 4 6.4 25.6 0 -13.2418
263 3 9.6 25.6 0 -11.2286
265 4 12.8 25.6 0 -13.286
267 3 16 25.6 0 -11.2876
269 3 19.2 25.6 0 -11.1904
271 2 22.4 25.6 0 -9.67194
273 3 25.6 25.6 0 -11.2026
275 4 28.8 25.6 0 -13.2616
277 4 32 25.6 0 -13.2075
279 1 35.2 25.6 0 -11.7578
281 1 38.4 25.6 0 -11.7982
283 1 41.6 25.6 0 -11.7346
285 1 44.8 25.6 0 -11.623
287 4 48 25.6 0 -13.1419
258 4 1.6 27.2 1.6 -13.2225
289 3 0 28.8 0 -11.078
260 4 4.8 27.2 1.6 -13.1984
291 2 3.2 28.8 0 -9.70613
262 4 8 27.2 1.6 -13.3006
293 4 6.4 28.8 0 -13.2233
264 4 11.2 27.2 1.6 -13.2313
295 4 9.6 28.8 0 -13.2558
266 4 14.4 27.2 1.6 -13.2646
297 3 12.8 28.8 0 -11.1676
268 4 17.6 27.2 1.6 -13.2945
299 4 16 28.8 0 -13.2412
270 4 20.8 27.2 1.6 -13.2052
301 3 19.2 28.8 0 -11.1494
272 4 24 27.2 1.6 -13.2292
303 4 22.4 28.8 0 -13.1195
305 3 25.6 28.8 0 -11.1722
274 4 27.2 27.2 1.6 -13.2583
307 4 28.8 28.8 0 -13.1639
276 3 30.4 27.2 1.6 -11.1024
309 1 32 28.8 0 -11.8051
278 3 33.6 27.2 1.6 -11.2761
311 1 35.2 28.8 0 -11.7532
280 3 36.8 27.2 1.6 -11.0816
313 1 38.4 28.8 0 -11.7194
282 3 40 27.2 1.6 -11.166
315 1 41.6 28.8 0 -11.6805
284 2 43.2 27.2 1.6 -9.7231
317 4 44.8 28.8 0 -13.0492
286 4 46.4 27.2 1.6 -13.0444
319 4 48 28.8 0 -13.178
288 3 49.6 27.2 1.6 -11.2501
290 4 1.6 30.4 1.6 -13.2284
321 1 0 32 0 -11.58
292 4 4.8 30.4 1.6 -13.2557
323 4 3.2 32 0 -13.159
294 4 8 30.4 1.6 -13.1549
325 2 6.4 32 0 -9.76206
296 4 11.2 30.4 1.6 -13.1514
327 2 9.6 32 0 -9.67734
298 4 14.4 30.4 1.6 -13.1554
329 2 12.8 32 0 -9.79455
300 4 17.6 30.4 1.6 -13.2582
331 4 16 32 0 -13.1209
302 4 20.8 30.4 1.6 -13.2173
333 3 19.2 32 0 -11.2065
304 1 24 30.4 1.6 -11.6256
335 4 22.4 32 0 -13.0817
337 1 25.6 32 0 -11.6172
306 4 27.2 30.4 1.6 -13.0464
339 1 28.8 32 0 -11.5704
308 4 30.4 30.4 1.6 -13.1619
341 4 32 32 0 -13.2518
310 3 33.6 30.4 1.6 -11.1633
343 1 35.2 32 0 -11.6894
312 4 36.8 30.4 1.6 -12.9606
345 1 38.4 32 0 -11.6841
314 3 40 30.4 1.6 -11.1542
347 4 41.6 32 0 -13.1998
316 3 43.2 30.4 1.6 -11.0638
349 1 44.8 32 0 -11.5881
318 4 46.4 30.4 1.6 -13.1282
351 4 48 32 0 -13.146
320 2 49.6 30.4 1.6 -9.76956
322 4 1.6 33.6 1.6 -13.2766
353 4 0 35.2 0 -13.2034
324 4 4.8 33.6 1.6 -13.2474
355 3 3.2 35.2 0 -11.2065
326 1 8 33.6 1.6 -11.6344
357 3 6.4 35.2 0 -11.2087
328 4 11.2 33.6 1.6 -13.2254
359 2 9.6 35.2 0 -9.77395
330 1 14.4 33.6 1.6 -11.612
361 3 12.8 35.2 0 -11.1358
332 4 17.6 33.6 1.6 -13.2051
363 4 16 35.2 0 -13.087
334 2 20.8 33.6 1.6 -9.85558
365 4 19.2 35.2 0 -13.3095
336 2 24 33.6 1.6 -9.7109
367 1 22.4 35.2 0 -11.7446
369 4 25.6 35.2 0 -13.2099
338 4 27.2 33.6 1.6 -13.1889
371 4 28.8 35.2 0 -13.3327
340 3 30.4 33.6 1.6 -11.1384
373 4 32 35.2 0 -13.2978
342 3 33.6 33.6 1.6 -11.1809
375 4 35.2 35.2 0 -13.2602
344 4 36.8 33.6 1.6 -13.0918
377 1 38.4 35.2 0 -11.7129
346 3 40 33.6 1.6 -11.0679
379 4 41.6 35.2 0 -13.193
348 4 43.2 33.6 1.6 -13.1655
381 4 44.8 35.2 0 -13.1925
350 3 46.4 33.6 1.6 -11.1124
383 1 48 35.2 0 -11.6948
352 3 49.6 33.6 1.6 -11.1539
354 4 1.6 36.8 1.6 -13.2578
385 4 0 38.4 0 -13.2029
356 4 4.8 36.8 1.6 -13.2843
387 4 3.2 38.4 0 -13.2611
358 4 8 36.8 1.6 -13.142
389 4 6.4 38.4 0 -13.1795
360 4 11.2 36.8 1.6 -13.2166
391 4 9.6 38.4 0 -13.1559
362 4 14.4 36.8 1.6 -13.1605
393 1 12.8 38.4 0 -11.6648
364 2 17.6 36.8 1.6 -9.72552
395 1 16 38.4 0 -11.7024
366 3 20.8 36.8 1.6 -11.2302
397 1 19.2 38.4 0 -11.8277
368 4 24 36.8 1.6 -13.1777
399 1 22.4 38.4 0 -11.7211
401 1 25.6 38.4 0 -11.6621
370 2 27.2 36.8 1.6 -9.73878
403 4 28.8 38.4 0 -13.1497
372 4 30.4 36.8 1.6 -13.184
405 1 32 38.4 0 -11.6149
374 4 33.6 36.8 1.6 -13.2672
407 4 35.2 38.4 0 -13.1916
376 4 36.8 36.8 1.6 -13.1914
409 4 38.4 38.4 0 -13.2608
378 4 40 36.8 1.6 -13.1543
411 4 41.6 38.4 0 -13.207
380 4 43.2 36.8 1.6 -13.1232
413 4 44.8 38.4 0 -13.3278
382 3 46.4 36.8 1.6 -11.2185
415 1 48 38.4 0 -11.7388
384 2 49.6 36.8 1.6 -9.76223
386 3 1.6 40 1.6 -11.1841
417 1 0 41.6 0 -11.7203
388 2 4.8 40 1.6 -9.79435
419 4 3.2 41.6 0 -13.2387
390 4 8 40 1.6 -13.161
421 4 6.4 41.6 0 -13.1656
392 2 11.2 40 1.6 -9.73623
423 4 9.6 41.6 0 -13.1954
394 3 14.4 40 1.6 -11.1646
425 1 12.8 41.6 0 -11.7354
396 3 17.6 40 1.6 -11.2028
427 1 16 41.6 0 -11.8123
398 3 20.8 40 1.6 -11.2394
429 1 19.2 41.6 0 -11.8282
400 2 24 40 1.6 -9.6379
431 1 22.4 41.6 0 -11.7062
433 4 25.6 41.6 0 -13.1006
402 4 27.2 40 1.6 -13.1656
435 4 28.8 41.6 0 -13.2597
404 4 30.4 40 1.6 -13.0781
437 4 32 41.6 0 -13.1794
406 4 33.6 40 1.6 -13.124
439 4 35.2 41.6 0 -13.1108
408 4 36.8 40 1.6 -13.195
441 2 38.4 41.6 0 -9.72878
410 4 40 40 1.6 -13.2505
443 4 41.6 41.6 0 -13.1437
412 4 43.2 40 1.6 -13.1039
445 4 44.8 41.6 0 -13.2036
414 4 46.4 40 1.6 -13.299
447 1 48 41.6 0 -11.7893
416 3 49.6 40 1.6 -11.2279
418 3 1.6 43.2 1.6 -11.1153
449 1 0 44.8 0 -11.728
420 4 4.8 43.2 1.6 -13.2772
451 1 3.2 44.8 0 -11.746
422 2 8 43.2 1.6 -9.737
453 1 6.4 44.8 0 -11.7181
424 4 11.2 43.2 1.6 -13.16
455 4 9.6 44.8 0 -13.271
426 3 14.4 43.2 1.6 -11.1645
457 1 12.8 44.8 0 -11.7833
428 2 17.6 43.2 1.6 -9.71405
459 1 16 44.8 0 -11.7844
430 3 20.8 43.2 1.6 -11.2395
461 1 19.2 44.8 0 -11.7996
432 2 24 43.2 1.6 -9.63578
463 1 22.4 44.8 0 -11.7677
465 1 25.6 44.8 0 -11.631
434 4 27.2 43.2 1.6 -13.1884
467 4 28.8 44.8 0 -13.1867
436 4 30.4 43.2 1.6 -13.2742
469 4 32 44.8 0 -13.2533
438 4 33.6 43.2 1.6 -13.1867
471 2 35.2 44.8 0 -9.66923
440 1 36.8 43.2 1.6 -11.581
473 4 38.4 44.8 0 -13.1317
442 4 40 43.2 1.6 -13.2016
475 4 41.6 44.8 0 -13.0975
444 4 43.2 43.2 1.6 -13.145
477 4 44.8 44.8 0 -13.117
446 3 46.4 43.2 1.6 -11.2206
479 1 48 44.8 0 -11.7609
448 2 49.6 43.2 1.6 -9.80038
450 3 1.6 46.4 1.6 -11.2388
481 1 0 48 0 -11.7362
452 3 4.8 46.4 1.6 -11.1934
483 4 3.2 48 0 -13.2948
454 3 8 46.4 1.6 -11.1597
485 1 6.4 48 0 -11.755
456 3 11.2 46.4 1.6 -11.2402
487 1 9.6 48 0 -11.812
458 3 14.4 46.4 1.6 -11.2408
489 1 12.8 48 0 -11.8414
460 3 17.6 46.4 1.6 -11.0835
491 1 16 48 0 -11.7541
462 3 20.8 46.4 1.6 -11.1622
493 1 19.2 48 0 -11.7661
464 4 24 46.4 1.6 -13.1589
495 4 22.4 48 0 -13.3146
497 4 25.6 48 0 -13.2294
466 4 27.2 46.4 1.6 -13.1113
499 2 28.8 48 0 -9.73605
468 4 30.4 46.4 1.6 -13.1968
501 4 32 48 0 -13.0833
470 4 33.6 46.4 1.6 -13.2553
503 4 35.2 48 0 -13.2778
472 4 36.8 46.4 1.6 -13.1648
505 3 38.4 48 0 -11.0436
474 4 40 46.4 1.6 -13.1595
507 4 41.6 48 0 -13.1018
476 4 43.2 46.4 1.6 -13.0995
509 1 44.8 48 0 -11.5222
478 2 46.4 46.4 1.6 -9.66617
511 4 48 48 0 -13.0992
480 3 49.6 46.4 1.6 -11.1561
482 3 1.6 49.6 1.6 -11.1198
484 3 4.8 49.6 1.6 -11.236
486 2 8 49.6 1.6 -9.77517
488 3 11.2 49.6 1.6 -11.1627
490 3 14.4 49.6 1.6 -11.165
492 4 17.6 49.6 1.6 -13.1459
494 3 20.8 49.6 1.6 -11.1928
496 4 24 49.6 1.6 -13.3308
498 4 27.2 49.6 1.6 -13.1843
500 4 30.4 49.6 1.6 -13.1945
502 4 33.6 49.6 1.6 -13.2972
504 4 36.8 49.6 1.6 -13.277
506 4 40 49.6 1.6 -13.2233
508 2 43.2 49.6 1.6 -9.59873
510 4 46.4 49.6 1.6 -12.982
512 4 49.6 49.6 1.6 -13.1226
513 1 0 0 3.2 -11.7663
514 3 1.6 1.6 4.8 -11.1238
515 1 3.2 0 3.2 -11.7467
516 4 4.8 1.6 4.8 -13.0589
517 1 6.4 0 3.2 -11.7328
518 3 8 1.6 4.8 -11.2039
519 1 9.6 0 3.2 -11.7732
520 3 11.2 1.6 4.8 -11.0385
521 1 12.8 0 3.2 -11.7249
522 4 14.4 1.6 4.8 -13.1473
523 1 16 0 3.2 -11.7343
524 3 17.6 1.6 4.8 -11.1873
525 4 19.2 0 3.2 -13.305
526 4 20.8 1.6 4.8 -13.3072
527 4 22.4 0 3.2 -13.3504
528 3 24 1.6 4.8 -11.3158
529 4 25.6 0 3.2 -13.3397
530 2 27.2 1.6 4.8 -9.70221
531 4 28.8 0 3.2 -13.1027
532 1 30.4 1.6 4.8 -11.6245
533 3 32 0 3.2 -11.1362
534 4 33.6 1.6 4.8 -13.2413
535 4 35.2 0 3.2 -13.3317
536 3 36.8 1.6 4.8 -11.2147
537 4 38.4 0 3.2 -13.2489
538 2 40 1.6 4.8 -9.72446
539 4 41.6 0 3.2 -13.2955
540 3 43.2 1.6 4.8 -11.1948
541 4 44.8 0 3.2 -13.2165
542 4 46.4 1.6 4.8 -13.1987
543 4 48 0 3.2 -13.2121
544 3 49.6 1.6 4.8 -11.1586
545 1 0 3.2 3.2 -11.8415
546 3 1.6 4.8 4.8 -11.1238
547 1 3.2 3.2 3.2 -11.6866
548 2 4.8 4.8 4.8 -9.65073
549 1 6.4 3.2 3.2 -11.7221
550 3 8 4.8 4.8 -11.1648
551 1 9.6 3.2 3.2 -11.732
552 3 11.2 4.8 4.8 -11.081
553 1 12.8 3.2 3.2 -11.6533
554 3 14.4 4.8 4.8 -11.1962
555 1 16 3.2 3.2 -11.7146
556 4 17.6 4.8 4.8 -13.0763
557 4 19.2 3.2 3.2 -13.1964
558 4 20.8 4.8 4.8 -13.0745
559 4 22.4 3.2 3.2 -13.2957
560 3 24 4.8 4.8 -11.1493
561 4 25.6 3.2 3.2 -13.2591
562 4 27.2 4.8 4.8 -13.1589
563 4 28.8 3.2 3.2 -13.091
564 3 30.4 4.8 4.8 -11.0727
565 4 32 3.2 3.2 -13.1706
566 3 33.6 4.8 4.8 -11.2226
567 4 35.2 3.2 3.2 -13.2455
568 3 36.8 4.8 4.8 -11.2124
569 4 38.4 3.2 3.2 -13.2265
570 4 40 4.8 4.8 -13.037
571 1 41.6 3.2 3.2 -11.7372
572 3 43.2 4.8 4.8 -11.2042
573 1 44.8 3.2 3.2 -11.7659
574 3 46.4 4.8 4.8 -11.1586
575 1 48 3.2 3.2 -11.7832
576 3 49.6 4.8 4.8 -11.3091
577 1 0 6.4 3.2 -11.7803
578 4 1.6 8 4.8 -13.0971
579 1 3.2 6.4 3.2 -11.6875
580 3 4.8 8 4.8 -11.1232
581 1 6.4 6.4 3.2 -11.7466
582 3 8 8 4.8 -11.2039
583 1 9.6 6.4 3.2 -11.7053
584 4 11.2 8 4.8 -13.0748
585 1 12.8 6.4 3.2 -11.733
586 3 14.4 8 4.8 -11.2363
587 4 16 6.4 3.2 -13.2143
588 3 17.6 8 4.8 -11.1207
589 1 19.2 6.4 3.2 -11.6628
590 2 20.8 8 4.8 -9.71179
591 1 22.4 6.4 3.2 -11.7105
592 3 24 8 4.8 -11.2401
593 1 25.6 6.4 3.2 -11.7395
594 3 27.2 8 4.8 -11.2002
595 1 28.8 6.4 3.2 -11.6957
596 3 30.4 8 4.8 -11.1631
597 1 32 6.4 3.2 -11.7521
598 3 33.6 8 4.8 -11.304
599 4 35.2 6.4 3.2 -13.3258
600 4 36.8 8 4.8 -13.1465
601 4 38.4 6.4 3.2 -13.2063
602 4 40 8 4.8 -13.0824
603 4 41.6 6.4 3.2 -13.2414
604 3 43.2 8 4.8 -11.1624
605 1 44.8 6.4 3.2 -11.8556
606 3 46.4 8 4.8 -11.277
607 1 48 6.4 3.2 -11.8557
608 3 49.6 8 4.8 -11.1596
609 1 0 9.6 3.2 -11.7686
610 3 1.6 11.2 4.8 -11.1897
611 1 3.2 9.6 3.2 -11.7385
612 3 4.8 11.2 4.8 -11.3061
613 1 6.4 9.6 3.2 -11.7833
614 3 8 11.2 4.8 -11.1979
615 4 9.6 9.6 3.2 -13.1881
616 4 11.2 11.2 4.8 -13.0759
617 4 12.8 9.6 3.2 -13.1873
618 3 14.4 11.2 4.8 -11.1175
619 1 16 9.6 3.2 -11.7228
620 2 17.6 11.2 4.8 -9.72503
621 4 19.2 9.6 3.2 -13.2754
622 3 20.8 11.2 4.8 -11.2694
623 1 22.4 9.6 3.2 -11.8287
624 3 24 11.2 4.8 -11.1532
625 4 25.6 9.6 3.2 -13.3347
626 3 27.2 11.2 4.8 -11.1983
627 1 28.8 9.6 3.2 -11.7905
628 3 30.4 11.2 4.8 -11.2728
629 4 32 9.6 3.2 -13.3312
630 3 33.6 11.2 4.8 -11.2677
631 4 35.2 9.6 3.2 -13.3535
632 3 36.8 11.2 4.8 -11.2676
633 1 38.4 9.6 3.2 -11.7342
634 3 40 11.2 4.8 -11.1554
635 1 41.6 9.6 3.2 -11.694
636 2 43.2 11.2 4.8 -9.69479
637 1 44.8 9.6 3.2 -11.7663
638 3 46.4 11.2 4.8 -11.161
639 1 48 9.6 3.2 -11.8414
640 3 49.6 11.2 4.8 -11.1989
641 4 0 12.8 3.2 -13.3008
642 4 1.6 14.4 4.8 -13.1549
643 4 3.2 12.8 3.2 -13.2575
644 3 4.8 14.4 4.8 -11.1088
645 4 6.4 12.8 3.2 -13.2991
646 3 8 14.4 4.8 -11.2359
647 4 9.6 12.8 3.2 -13.2449
648 4 11.2 14.4 4.8 -13.1137
649 4 12.8 12.8 3.2 -13.2435
650 3 14.4 14.4 4.8 -11.1974
651 4 16 12.8 3.2 -13.1962
652 4 17.6 14.4 4.8 -13.0272
653 4 19.2 12.8 3.2 -13.1918
654 3 20.8 14.4 4.8 -11.1542
655 4 22.4 12.8 3.2 -13.2707
656 4 24 14.4 4.8 -12.9781
657 4 25.6 12.8 3.2 -13.159
658 4 27.2 14.4 4.8 -13.0734
659 4 28.8 12.8 3.2 -13.1741
660 2 30.4 14.4 4.8 -9.69816
661 4 32 12.8 3.2 -13.266
662 3 33.6 14.4 4.8 -11.1959
663 4 35.2 12.8 3.2 -13.2857
664 3 36.8 14.4 4.8 -11.2651
665 4 38.4 12.8 3.2 -13.294
666 3 40 14.4 4.8 -11.2636
667 4 41.6 12.8 3.2 -13.2324
668 3 43.2 14.4 4.8 -11.2673
669 4 44.8 12.8 3.2 -13.2489
670 3 46.4 14.4 4.8 -11.2398
671 1 48 12.8 3.2 -11.842
672 2 49.6 14.4 4.8 -9.68997
673 4 0 16 3.2 -13.0725
674 2 1.6 17.6 4.8 -9.65719
675 1 3.2 16 3.2 -11.6361
676 2 4.8 17.6 4.8 -9.6837
677 1 6.4 16 3.2 -11.7996
678 3 8 17.6 4.8 -11.2014
679 1 9.6 16 3.2 -11.7581
680 3 11.2 17.6 4.8 -11.0359
681 1 12.8 16 3.2 -11.7042
682 3 14.4 17.6 4.8 -11.1578
683 4 16 16 3.2 -13.219
684 2 17.6 17.6 4.8 -9.72114
685 1 19.2 16 3.2 -11.6767
686 3 20.8 17.6 4.8 -11.2708
687 4 22.4 16 3.2 -13.2384
688 2 24 17.6 4.8 -9.72889
689 1 25.6 16 3.2 -11.5948
690 3 27.2 17.6 4.8 -11.0662
691 1 28.8 16 3.2 -11.6719
692 3 30.4 17.6 4.8 -11.2327
693 1 32 16 3.2 -11.7136
694 3 33.6 17.6 4.8 -11.1581
695 1 35.2 16 3.2 -11.7114
696 4 36.8 17.6 4.8 -13.2701
697 1 38.4 16 3.2 -11.7551
698 3 40 17.6 4.8 -11.22
699 4 41.6 16 3.2 -13.2615
700 3 43.2 17.6 4.8 -11.2282
701 1 44.8 16 3.2 -11.7692
702 3 46.4 17.6 4.8 -11.206
703 1 48 16 3.2 -11.7394
704 2 49.6 17.6 4.8 -9.66039
705 1 0 19.2 3.2 -11.7232
706 3 1.6 20.8 4.8 -11.1158
707 1 3.2 19.2 3.2 -11.7032
708 4 4.8 20.8 4.8 -13.1584
709 1 6.4 19.2 3.2 -11.743
710 2 8 20.8 4.8 -9.70575
711 4 9.6 19.2 3.2 -13.2119
712 4 11.2 20.8 4.8 -13.1549
713 1 12.8 19.2 3.2 -11.6059
714 4 14.4 20.8 4.8 -13.2231
715 4 16 19.2 3.2 -13.2046
716 2 17.6 20.8 4.8 -9.76197
717 1 19.2 19.2 3.2 -11.7739
718 3 20.8 20.8 4.8 -11.109
719 1 22.4 19.2 3.2 -11.702
720 4 24 20.8 4.8 -13.1068
721 1 25.6 19.2 3.2 -11.5856
722 4 27.2 20.8 4.8 -13.2278
723 4 28.8 19.2 3.2 -13.261
724 3 30.4 20.8 4.8 -11.1508
725 1 32 19.2 3.2 -11.8122
726 2 33.6 20.8 4.8 -9.71476
727 1 35.2 19.2 3.2 -11.7474
728 3 36.8 20.8 4.8 -11.1194
729 1 38.4 19.2 3.2 -11.7579
730 4 40 20.8 4.8 -13.1222
731 1 41.6 19.2 3.2 -11.721
732 2 43.2 20.8 4.8 -9.72229
733 1 44.8 19.2 3.2 -11.7707
734 3 46.4 20.8 4.8 -11.0806
735 1 48 19.2 3.2 -11.7466
736 3 49.6 20.8 4.8 -11.2419
737 1 0 22.4 3.2 -11.8318
738 3 1.6 24 4.8 -11.2336
739 4 3.2 22.4 3.2 -13.3043
740 2 4.8 24 4.8 -9.77176
741 4 6.4 22.4 3.2 -13.2338
742 4 8 24 4.8 -13.2269
743 2 9.6 22.4 3.2 -9.76536
744 4 11.2 24 4.8 -13.2344
745 4 12.8 22.4 3.2 -13.0869
746 4 14.4 24 4.8 -13.2623
747 2 16 22.4 3.2 -9.79248
748 4 17.6 24 4.8 -13.1394
749 4 19.2 22.4 3.2 -13.1457
750 4 20.8 24 4.8 -13.1061
751 4 22.4 22.4 3.2 -13.1206
752 4 24 24 4.8 -13.1998
753 3 25.6 22.4 3.2 -11.0073
754 4 27.2 24 4.8 -13.2548
755 4 28.8 22.4 3.2 -13.198
756 4 30.4 24 4.8 -13.1427
757 1 32 22.4 3.2 -11.6921
758 3 33.6 24 4.8 -11.1209
759 1 35.2 22.4 3.2 -11.7844
760 3 36.8 24 4.8 -11.2048
761 1 38.4 22.4 3.2 -11.7537
762 3 40 24 4.8 -11.0789
763 1 41.6 22.4 3.2 -11.6858
764 4 43.2 24 4.8 -13.1628
765 1 44.8 22.4 3.2 -11.7237
766 4 46.4 24 4.8 -13.0858
767 1 48 22.4 3.2 -11.7974
768 3 49.6 24 4.8 -11.2356
769 4 0 25.6 3.2 -13.2906
771 4 3.2 25.6 3.2 -13.2352
773 4 6.4 25.6 3.2 -13.1909
775 3 9.6 25.6 3.2 -11.1366
777 4 12.8 25.6 3.2 -13.1661
779 3 16 25.6 3.2 -11.2066
781 4 19.2 25.6 3.2 -13.1252
783 2 22.4 25.6 3.2 -9.66983
785 4 25.6 25.6 3.2 -13.2435
787 4 28.8 25.6 3.2 -13.1143
789 1 32 25.6 3.2 -11.6912
791 1 35.2 25.6 3.2 -11.7826
793 1 38.4 25.6 3.2 -11.783
795 1 41.6 25.6 3.2 -11.7475
797 4 44.8 25.6 3.2 -13.1843
799 4 48 25.6 3.2 -13.2558
770 2 1.6 27.2 4.8 -9.73859
801 1 0 28.8 3.2 -11.8025
772 1 4.8 27.2 4.8 -11.6288
803 3 3.2 28.8 3.2 -11.2357
774 1 8 27.2 4.8 -11.671
805 3 6.4 28.8 3.2 -11.142
776 1 11.2 27.2 4.8 -11.7006
807 2 9.6 28.8 3.2 -9.7284
778 4 14.4 27.2 4.8 -13.2948
809 4 12.8 28.8 3.2 -13.1184
780 4 17.6 27.2 4.8 -13.2326
811 2 16 28.8 3.2 -9.7656
782 4 20.8 27.2 4.8 -13.2245
813 4 19.2 28.8 3.2 -13.2422
784 4 24 27.2 4.8 -13.2995
815 2 22.4 28.8 3.2 -9.69941
817 2 25.6 28.8 3.2 -9.79454
786 4 27.2 27.2 4.8 -13.2261
819 4 28.8 28.8 3.2 -13.1655
788 4 30.4 27.2 4.8 -13.2335
821 4 32 28.8 3.2 -13.2921
790 3 33.6 27.2 4.8 -11.1598
823 1 35.2 28.8 3.2 -11.747
792 2 36.8 27.2 4.8 -9.77486
825 1 38.4 28.8 3.2 -11.7347
794 3 40 27.2 4.8 -11.2727
827 1 41.6 28.8 3.2 -11.8061
796 3 43.2 27.2 4.8 -11.1474
829 4 44.8 28.8 3.2 -13.2163
798 4 46.4 27.2 4.8 -13.1643
831 1 48 28.8 3.2 -11.6798
800 3 49.6 27.2 4.8 -11.1141
802 3 1.6 30.4 4.8 -11.3126
833 4 0 32 3.2 -13.3081
804 4 4.8 30.4 4.8 -13.2856
835 2 3.2 32 3.2 -9.85787
806 4 8 30.4 4.8 -13.2369
837 4 6.4 32 3.2 -13.1676
808 1 11.2 30.4 4.8 -11.6896
839 4 9.6 32 3.2 -13.1106
810 4 14.4 30.4 4.8 -13.2537
841 4 12.8 32 3.2 -13.1722
812 1 17.6 30.4 4.8 -11.7216
843 2 16 32 3.2 -9.70407
814 4 20.8 30.4 4.8 -13.2739
845 3 19.2 32 3.2 -11.2305
816 1 24 30.4 4.8 -11.7211
847 4 22.4 32 3.2 -13.2436
849 3 25.6 32 3.2 -11.0563
818 4 27.2 30.4 4.8 -13.287
851 1 28.8 32 3.2 -11.6352
820 3 30.4 30.4 4.8 -11.0601
853 1 32 32 3.2 -11.7238
822 3 33.6 30.4 4.8 -11.2676
855 1 35.2 32 3.2 -11.633
824 2 36.8 30.4 4.8 -9.71841
857 1 38.4 32 3.2 -11.6047
826 3 40 30.4 4.8 -11.1913
859 4 41.6 32 3.2 -13.2187
828 4 43.2 30.4 4.8 -13.2785
861 4 44.8 32 3.2 -13.2605
830 3 46.4 30.4 4.8 -11.1109
863 1 48 32 3.2 -11.7722
832 3 49.6 30.4 4.8 -11.2742
834 3 1.6 33.6 4.8 -11.3395
865 4 0 35.2 3.2 -13.3029
836 4 4.8 33.6 4.8 -13.346
867 3 3.2 35.2 3.2 -11.2652
838 2 8 33.6 4.8 -9.76329
869 4 6.4 35.2 3.2 -13.2192
840 3 11.2 33.6 4.8 -11.2004
871 4 9.6 35.2 3.2 -13.2183
842 4 14.4 33.6 4.8 -13.2885
873 2 12.8 35.2 3.2 -9.81938
844 4 17.6 33.6 4.8 -13.2307
875 4 16 35.2 3.2 -13.1554
846 3 20.8 33.6 4.8 -11.1687
877 4 19.2 35.2 3.2 -13.3216
848 4 24 33.6 4.8 -13.1931
879 4 22.4 35.2 3.2 -13.2203
881 4 25.6 35.2 3.2 -13.2103
850 4 27.2 33.6 4.8 -13.2001
883 2 28.8 35.2 3.2 -9.70491
852 4 30.4 33.6 4.8 -13.2267
885 4 32 35.2 3.2 -13.2679
854 4 33.6 33.6 4.8 -13.2829
887 3 35.2 35.2 3.2 -11.1794
856 4 36.8 33.6 4.8 -13.1569
889 4 38.4 35.2 3.2 -13.1857
858 4 40 33.6 4.8 -13.1576
891 1 41.6 35.2 3.2 -11.5526
860 2 43.2 33.6 4.8 -9.66962
893 4 44.8 35.2 3.2 -13.2265
862 2 46.4 33.6 4.8 -9.72298
895 1 48 35.2 3.2 -11.7403
864 3 49.6 33.6 4.8 -11.1877
866 4 1.6 36.8 4.8 -13.1139
897 4 0 38.4 3.2 -13.2265
868 2 4.8 36.8 4.8 -9.76268
899 4 3.2 38.4 3.2 -13.2671
870 2 8 36.8 4.8 -9.7663
901 4 6.4 38.4 3.2 -13.2211
872 3 11.2 36.8 4.8 -11.2873
903 4 9.6 38.4 3.2 -13.2755
874 3 14.4 36.8 4.8 -11.253
905 4 12.8 38.4 3.2 -13.2974
876 2 17.6 36.8 4.8 -9.73075
907 1 16 38.4 3.2 -11.7692
878 3 20.8 36.8 4.8 -11.1963
909 1 19.2 38.4 3.2 -11.7996
880 4 24 36.8 4.8 -13.1108
911 4 22.4 38.4 3.2 -13.2126
913 2 25.6 38.4 3.2 -9.70779
882 4 27.2 36.8 4.8 -13.2357
915 4 28.8 38.4 3.2 -13.1755
884 1 30.4 36.8 4.8 -11.6861
917 2 32 38.4 3.2 -9.63265
886 1 33.6 36.8 4.8 -11.7674
919 3 35.2 38.4 3.2 -11.1516
888 1 36.8 36.8 4.8 -11.8002
921 3 38.4 38.4 3.2 -11.2221
890 4 40 36.8 4.8 -13.1236
923 4 41.6 38.4 3.2 -13.0912
892 4 43.2 36.8 4.8 -13.1419
925 3 44.8 38.4 3.2 -11.1166
894 4 46.4 36.8 4.8 -13.1262
927 4 48 38.4 3.2 -13.2736
896 2 49.6 36.8 4.8 -9.69927
898 4 1.6 40 4.8 -13.1609
929 1 0 41.6 3.2 -11.7863
900 3 4.8 40 4.8 -11.2292
931 4 3.2 41.6 3.2 -13.2996
902 3 8 40 4.8 -11.2633
933 4 6.4 41.6 3.2 -13.3213
904 3 11.2 40 4.8 -11.3382
935 4 9.6 41.6 3.2 -13.2686
906 3 14.4 40 4.8 -11.3064
937 1 12.8 41.6 3.2 -11.7983
908 3 17.6 40 4.8 -11.2299
939 1 16 41.6 3.2 -11.783
910 2 20.8 40 4.8 -9.72089
941 4 19.2 41.6 3.2 -13.2833
912 4 24 40 4.8 -13.0749
943 1 22.4 41.6 3.2 -11.6913
945 4 25.6 41.6 3.2 -13.1531
914 1 27.2 40 4.8 -11.7056
947 3 28.8 41.6 3.2 -11.0623
916 1 30.4 40 4.8 -11.6429
949 2 32 41.6 3.2 -9.70119
918 1 33.6 40 4.8 -11.6225
951 4 35.2 41.6 3.2 -13.0454
920 1 36.8 40 4.8 -11.7268
953 3 38.4 41.6 3.2 -11.1819
922 4 40 40 4.8 -13.2518
955 4 41.6 41.6 3.2 -13.1264
924 4 43.2 40 4.8 -13.1083
957 4 44.8 41.6 3.2 -13.1901
926 4 46.4 40 4.8 -13.1953
959 4 48 41.6 3.2 -13.2992
928 3 49.6 40 4.8 -11.1936
930 2 1.6 43.2 4.8 -9.73667
961 1 0 44.8 3.2 -11.7706
932 3 4.8 43.2 4.8 -11.2257
963 4 3.2 44.8 3.2 -13.3049
934 3 8 43.2 4.8 -11.2322
965 4 6.4 44.8 3.2 -13.2787
936 3 11.2 43.2 4.8 -11.2399
967 1 9.6 44.8 3.2 -11.7586
938 3 14.4 43.2 4.8 -11.1978
969 4 12.8 44.8 3.2 -13.2885
940 4 17.6 43.2 4.8 -13.1111
971 1 16 44.8 3.2 -11.7347
942 3 20.8 43.2 4.8 -11.1124
973 1 19.2 44.8 3.2 -11.7254
944 4 24 43.2 4.8 -13.174
975 4 22.4 44.8 3.2 -13.1461
977 4 25.6 44.8 3.2 -13.1411
946 4 27.2 43.2 4.8 -13.2326
979 2 28.8 44.8 3.2 -9.76222
948 1 30.4 43.2 4.8 -11.6776
981 3 32 44.8 3.2 -11.1421
950 4 33.6 43.2 4.8 -13.1227
983 4 35.2 44.8 3.2 -13.1186
952 4 36.8 43.2 4.8 -13.1169
985 4 38.4 44.8 3.2 -13.1218
954 4 40 43.2 4.8 -13.2641
987 3 41.6 44.8 3.2 -11.0805
956 4 43.2 43.2 4.8 -13.1394
989 4 44.8 44.8 3.2 -13.2637
958 3 46.4 43.2 4.8 -11.0996
991 4 48 44.8 3.2 -13.3276
960 3 49.6 43.2 4.8 -11.2303
962 4 1.6 46.4 4.8 -13.1969
993 1 0 48 3.2 -11.7048
964 3 4.8 46.4 4.8 -11.153
995 1 3.2 48 3.2 -11.7835
966 4 8 46.4 4.8 -13.1469
997 1 6.4 48 3.2 -11.7454
968 3 11.2 46.4 4.8 -11.1621
999 1 9.6 48 3.2 -11.7535
970 2 14.4 46.4 4.8 -9.769
1001 1 12.8 48 3.2 -11.8284
972 3 17.6 46.4 4.8 -11.0396
1003 1 16 48 3.2 -11.7505
974 4 20.8 46.4 4.8 -13.1158
1005 1 19.2 48 3.2 -11.7342
976 4 24 46.4 4.8 -13.1043
1007 1 22.4 48 3.2 -11.7036
1009 3 25.6 48 3.2 -11.1092
978 4 27.2 46.4 4.8 -13.239
1011 4 28.8 48 3.2 -13.2437
980 1 30.4 46.4 4.8 -11.6644
1013 3 32 48 3.2 -11.2511
982 4 33.6 46.4 4.8 -13.2196
1015 3 35.2 48 3.2 -11.1675
984 4 36.8 46.4 4.8 -13.1492
1017 4 38.4 48 3.2 -13.1756
986 4 40 46.4 4.8 -13.2239
1019 4 41.6 48 3.2 -13.1851
988 2 43.2 46.4 4.8 -9.69967
1021 1 44.8 48 3.2 -11.6075
990 4 46.4 46.4 4.8 -13.2033
1023 4 48 48 3.2 -13.2365
992 3 49.6 46.4 4.8 -11.1937
994 3 1.6 49.6 4.8 -11.083
996 2 4.8 49.6 4.8 -9.64616
998 3 8 49.6 4.8 -11.0369
1000 3 11.2 49.6 4.8 -11.2444
1002 3 14.4 49.6 4.8 -11.1261
1004 3 17.6 49.6 4.8 -11.1612
1006 3 20.8 49.6 4.8 -11.1907
1008 3 24 49.6 4.8 -11.2477
1010 2 27.2 49.6 4.8 -9.81501
1012 4 30.4 49.6 4.8 -13.235
1014 4 33.6 49.6 4.8 -13.3149
1016 4 36.8 49.6 4.8 -13.2232
1018 2 40 49.6 4.8 -9.70625
1020 4 43.2 49.6 4.8 -13.2467
1022 3 46.4 49.6 4.8 -11.1317
1024 2 49.6 49.6 4.8 -9.75897
1025 1 0 0 6.4 -11.694
1026 2 1.6 1.6 8 -9.72488
1027 1 3.2 0 6.4 -11.6927
1028 3 4.8 1.6 8 -11.1877
1029 1 6.4 0 6.4 -11.7038
1030 3 8 1.6 8 -11.1955
1031 1 9.6 0 6.4 -11.7842
1032 2 11.2 1.6 8 -9.71474
1033 1 12.8 0 6.4 -11.754
1034 3 14.4 1.6 8 -11.1626
1035 1 16 0 6.4 -11.7508
1036 3 17.6 1.6 8 -11.2326
1037 4 19.2 0 6.4 -13.3007
1038 3 20.8 1.6 8 -11.2585
1039 4 22.4 0 6.4 -13.2973
1040 4 24 1.6 8 -13.3324
1041 4 25.6 0 6.4 -13.289
1042 4 27.2 1.6 8 -13.1118
1043 4 28.8 0 6.4 -13.1404
1044 4 30.4 1.6 8 -13.1268
1045 3 32 0 6.4 -11.1446
1046 1 33.6 1.6 8 -11.7024
1047 4 35.2 0 6.4 -13.2641
1048 2 36.8 1.6 8 -9.73341
1049 4 38.4 0 6.4 -13.1146
1050 1 40 1.6 8 -11.4729
1051 4 41.6 0 6.4 -13.197
1052 3 43.2 1.6 8 -11.1056
1053 4 44.8 0 6.4 -13.2704
1054 4 46.4 1.6 8 -13.0818
1055 4 48 0 6.4 -13.2272
1056 4 49.6 1.6 8 -13.1621
1057 1 0 3.2 6.4 -11.7828
1058 3 1.6 4.8 8 -11.2018
1059 1 3.2 3.2 6.4 -11.7536
1060 3 4.8 4.8 8 -11.1939
1061 4 6.4 3.2 6.4 -13.2538
1062 4 8 4.8 8 -13.2352
1063 1 9.6 3.2 6.4 -11.7559
1064 2 11.2 4.8 8 -9.6629
1065 1 12.8 3.2 6.4 -11.7533
1066 3 14.4 4.8 8 -11.2
1067 4 16 3.2 6.4 -13.2573
1068 2 17.6 4.8 8 -9.74849
1069 4 19.2 3.2 6.4 -13.2606
1070 3 20.8 4.8 8 -11.2321
1071 4 22.4 3.2 6.4 -13.3274
1072 3 24 4.8 8 -11.154
1073 4 25.6 3.2 6.4 -13.2258
1074 2 27.2 4.8 8 -9.63464
1075 4 28.8 3.2 6.4 -13.1332
1076 2 30.4 4.8 8 -9.66951
1077 4 32 3.2 6.4 -13.2098
1078 4 33.6 4.8 8 -13.2279
1079 4 35.2 3.2 6.4 -13.254
1080 2 36.8 4.8 8 -9.76669
1081 1 38.4 3.2 6.4 -11.6453
1082 2 40 4.8 8 -9.63411
1083 1 41.6 3.2 6.4 -11.6511
1084 3 43.2 4.8 8 -11.1213
1085 1 44.8 3.2 6.4 -11.7111
1086 4 46.4 4.8 8 -13.2396
1087 4 48 3.2 6.4 -13.2075
1088 3 49.6 4.8 8 -11.2275
1089 1 0 6.4 6.4 -11.7685
1090 3 1.6 8 8 -11.1613
1091 1 3.2 6.4 6.4 -11.7538
1092 3 4.8 8 8 -11.2432
1093 1 6.4 6.4 6.4 -11.7732
1094 3 8 8 8 -11.164
1095 1 9.6 6.4 6.4 -11.695
1096 2 11.2 8 8 -9.66065
1097 4 12.8 6.4 6.4 -13.2235
1098 2 14.4 8 8 -9.71315
1099 1 16 6.4 6.4 -11.7684
1100 3 17.6 8 8 -11.0808
1101 1 19.2 6.4 6.4 -11.671
1102 3 20.8 8 8 -11.206
1103 1 22.4 6.4 6.4 -11.7637