ITEM: TIMESTEP
0
ITEM: NUMBER OF ATOMS
8192
ITEM: BOX BOUNDS pp pp pp
0.0000000000000000e+00 5.1200000000000003e+01
0.0000000000000000e+00 5.1200000000000003e+01
0.0000000000000000e+00 5.1200000000000003e+01
ITEM: ATOMS id type x y z c_eng
1 1 0 0 0 -11.7176
2 3 1.6 1.6 1.6 -11.1226
3 1 3.2 0 0 -11.7979
4 4 4.8 1.6 1.6 -13.1569
5 1 6.4 0 0 -11.766
6 2 8 1.6 1.6 -9.70147
7 1 9.6 0 0 -11.6903
8 4 11.2 1.6 1.6 -13.1089
9 1 12.8 0 0 -11.6966
10 3 14.4 1.6 1.6 -11.1199
11 1 16 0 0 -11.7983
12 3 17.6 1.6 1.6 -11.1592
13 1 19.2 0 0 -11.72
14 3 20.8 1.6 1.6 -11.0425
15 1 22.4 0 0 -11.7185
16 3 24 1.6 1.6 -11.0756
17 4 25.6 0 0 -13.2083
18 4 27.2 1.6 1.6 -13.157
19 3 28.8 0 0 -10.9684
20 4 30.4 1.6 1.6 -13.1754
21 4 32 0 0 -13.2838
22 4 33.6 1.6 1.6 -13.0696
23 3 35.2 0 0 -11.0665
24 2 36.8 1.6 1.6 -9.7666
25 4 38.4 0 0 -13.3028
26 3 40 1.6 1.6 -11.2202
27 4 41.6 0 0 -13.1416
28 2 43.2 1.6 1.6 -9.73063
29 4 44.8 0 0 -13.0985
30 3 46.4 1.6 1.6 -11.0783
31 1 48 0 0 -11.6983
32 2 49.6 1.6 1.6 -9.65559
33 1 0 3.2 0 -11.6553
34 2 1.6 4.8 1.6 -9.72144
35 1 3.2 3.2 0 -11.7688
36 3 4.8 4.8 1.6 -11.1202
37 1 6.4 3.2 0 -11.7662
38 3 8 4.8 1.6 -11.2387
39 1 9.6 3.2 0 -11.7662
40 3 11.2 4.8 1.6 -11.2023
41 1 12.8 3.2 0 -11.7802
42 3 14.4 4.8 1.6 -11.1648
43 1 16 3.2 0 -11.7538
44 4 17.6 4.8 1.6 -13.0971
45 1 19.2 3.2 0 -11.7057
46 3 20.8 4.8 1.6 -11.1252
47 1 22.4 3.2 0 -11.7665
48 4 24 4.8 1.6 -13.2027
49 4 25.6 3.2 0 -13.2679
50 2 27.2 4.8 1.6 -9.70528
51 2 28.8 3.2 0 -9.79288
52 2 30.4 4.8 1.6 -9.6998
53 2 32 3.2 0 -9.66892
54 4 33.6 4.8 1.6 -13.1052
55 4 35.2 3.2 0 -13.1053
56 2 36.8 4.8 1.6 -9.63937
57 4 38.4 3.2 0 -13.2255
58 4 40 4.8 1.6 -13.2407
59 4 41.6 3.2 0 -13.277
60 3 43.2 4.8 1.6 -11.2333
61 1 44.8 3.2 0 -11.8018
62 3 46.4 4.8 1.6 -11.2023
63 1 48 3.2 0 -11.7016
64 2 49.6 4.8 1.6 -9.62808
65 1 0 6.4 0 -11.7111
66 4 1.6 8 1.6 -13.1117
67 4 3.2 6.4 0 -13.2162
68 4 4.8 8 1.6 -13.0712
69 1 6.4 6.4 0 -11.8151
70 3 8 8 1.6 -11.2342
71 1 9.6 6.4 0 -11.8414
72 3 11.2 8 1.6 -11.2382
73 1 12.8 6.4 0 -11.8416
74 3 14.4 8 1.6 -11.164
75 1 16 6.4 0 -11.7803
76 3 17.6 8 1.6 -11.1198
77 1 19.2 6.4 0 -11.7505
78 3 20.8 8 1.6 -11.2354
79 4 22.4 6.4 0 -13.2487
80 2 24 8 1.6 -9.63374
81 4 25.6 6.4 0 -13.1518
82 4 27.2 8 1.6 -13.1354
83 4 28.8 6.4 0 -13.1806
84 2 30.4 8 1.6 -9.75736
85 4 32 6.4 0 -13.1583
86 3 33.6 8 1.6 -11.1017
87 4 35.2 6.4 0 -13.1229
88 4 36.8 8 1.6 -13.1914
89 1 38.4 6.4 0 -11.6399
90 3 40 8 1.6 -11.1053
91 1 41.6 6.4 0 -11.7835
92 3 43.2 8 1.6 -11.0613
93 1 44.8 6.4 0 -11.7737
94 4 46.4 8 1.6 -13.2046
95 4 48 6.4 0 -13.2528
96 3 49.6 8 1.6 -11.1131
97 1 0 9.6 0 -11.7973
98 3 1.6 11.2 1.6 -11.1525
99 1 3.2 9.6 0 -11.6874
100 4 4.8 11.2 1.6 -13.026
101 4 6.4 9.6 0 -13.2489
102 2 8 11.2 1.6 -9.78689
103 1 9.6 9.6 0 -11.8136
104 2 11.2 11.2 1.6 -9.76239
105 1 12.8 9.6 0 -11.7854
106 4 14.4 11.2 1.6 -13.1979
107 1 16 9.6 0 -11.7799
108 3 17.6 11.2 1.6 -11.1595
109 1 19.2 9.6 0 -11.7646
110 3 20.8 11.2 1.6 -11.1122
111 4 22.4 9.6 0 -13.214
112 4 24 11.2 1.6 -13.116
113 1 25.6 9.6 0 -11.6146
114 3 27.2 11.2 1.6 -11.0688
115 2 28.8 9.6 0 -9.77628
116 3 30.4 11.2 1.6 -11.1401
117 4 32 9.6 0 -13.2789
118 4 33.6 11.2 1.6 -13.243
119 4 35.2 9.6 0 -13.1721
120 2 36.8 11.2 1.6 -9.66684
121 1 38.4 9.6 0 -11.6351
122 4 40 11.2 1.6 -13.198
123 4 41.6 9.6 0 -13.1703
124 4 43.2 11.2 1.6 -13.1245
125 1 44.8 9.6 0 -11.6379
126 3 46.4 11.2 1.6 -11.1195
127 1 48 9.6 0 -11.8283
128 3 49.6 11.2 1.6 -11.3393
129 1 0 12.8 0 -11.7935
130 3 1.6 14.4 1.6 -11.1592
131 1 3.2 12.8 0 -11.6533
132 2 4.8 14.4 1.6 -9.55197
133 1 6.4 12.8 0 -11.6595
134 3 8 14.4 1.6 -11.0319
135 1 9.6 12.8 0 -11.7215
136 3 11.2 14.4 1.6 -11.2282
137 4 12.8 12.8 0 -13.2753
138 3 14.4 14.4 1.6 -11.0693
139 1 16 12.8 0 -11.7215
140 2 17.6 14.4 1.6 -9.65149
141 1 19.2 12.8 0 -11.6808
142 4 20.8 14.4 1.6 -13.0804
143 4 22.4 12.8 0 -13.1363
144 2 24 14.4 1.6 -9.6439
145 4 25.6 12.8 0 -13.1379
146 4 27.2 14.4 1.6 -13.0408
147 4 28.8 12.8 0 -13.2975
148 4 30.4 14.4 1.6 -13.2042
149 4 32 12.8 0 -13.2408
150 4 33.6 14.4 1.6 -13.041
151 1 35.2 12.8 0 -11.6688
152 2 36.8 14.4 1.6 -9.72545
153 1 38.4 12.8 0 -11.6861
154 3 40 14.4 1.6 -11.0679
155 4 41.6 12.8 0 -13.2067
156 3 43.2 14.4 1.6 -11.2392
157 1 44.8 12.8 0 -11.7045
158 3 46.4 14.4 1.6 -11.2045
159 1 48 12.8 0 -11.8121
160 3 49.6 14.4 1.6 -11.2761
161 1 0 16 0 -11.7464
162 3 1.6 17.6 1.6 -11.1969
163 1 3.2 16 0 -11.6333
164 2 4.8 17.6 1.6 -9.65579
165 1 6.4 16 0 -11.6153
166 4 8 17.6 1.6 -12.9809
167 1 9.6 16 0 -11.6002
168 4 11.2 17.6 1.6 -13.104
169 4 12.8 16 0 -13.1768
170 4 14.4 17.6 1.6 -13.1466
171 1 16 16 0 -11.6707
172 3 17.6 17.6 1.6 -11.0732
173 4 19.2 16 0 -13.2149
174 3 20.8 17.6 1.6 -11.0703
175 1 22.4 16 0 -11.6431
176 4 24 17.6 1.6 -13.1619
177 1 25.6 16 0 -11.6825
178 2 27.2 17.6 1.6 -9.76476
179 4 28.8 16 0 -13.2019
180 2 30.4 17.6 1.6 -9.78948
181 4 32 16 0 -13.2175
182 3 33.6 17.6 1.6 -11.1995
183 1 35.2 16 0 -11.6789
184 2 36.8 17.6 1.6 -9.66915
185 1 38.4 16 0 -11.6613
186 4 40 17.6 1.6 -13.1152
187 1 41.6 16 0 -11.7488
188 3 43.2 17.6 1.6 -11.1648
189 1 44.8 16 0 -11.8122
190 3 46.4 17.6 1.6 -11.165
191 1 48 16 0 -11.8124
192 3 49.6 17.6 1.6 -11.2029
193 1 0 19.2 0 -11.6908
194 4 1.6 20.8 1.6 -13.2238
195 4 3.2 19.2 0 -13.2353
196 3 4.8 20.8 1.6 -11.2943
197 4 6.4 19.2 0 -13.2162
198 3 8 20.8 1.6 -11.1077
199 1 9.6 19.2 0 -11.6164
200 4 11.2 20.8 1.6 -13.2911
201 3 12.8 19.2 0 -11.126
202 4 14.4 20.8 1.6 -13.254
203 4 16 19.2 0 -13.2143
204 4 17.6 20.8 1.6 -13.1904
205 4 19.2 19.2 0 -13.2733
206 2 20.8 20.8 1.6 -9.76314
207 1 22.4 19.2 0 -11.7261
208 3 24 20.8 1.6 -11.0582
209 4 25.6 19.2 0 -13.2135
210 2 27.2 20.8 1.6 -9.82342
211 4 28.8 19.2 0 -13.2943
212 3 30.4 20.8 1.6 -11.2201
213 1 32 19.2 0 -11.6974
214 3 33.6 20.8 1.6 -11.1935
215 1 35.2 19.2 0 -11.7443
216 3 36.8 20.8 1.6 -11.2571
217 4 38.4 19.2 0 -13.2487
218 3 40 20.8 1.6 -11.225
219 1 41.6 19.2 0 -11.7659
220 3 43.2 20.8 1.6 -11.2441
221 1 44.8 19.2 0 -11.7803
222 3 46.4 20.8 1.6 -11.1229
223 1 48 19.2 0 -11.7459
224 4 49.6 20.8 1.6 -13.1195
225 1 0 22.4 0 -11.6052
226 3 1.6 24 1.6 -11.0982
227 4 3.2 22.4 0 -13.2547
228 3 4.8 24 1.6 -11.2798
229 4 6.4 22.4 0 -13.2269
230 4 8 24 1.6 -13.2644
231 4 9.6 22.4 0 -13.1525
232 4 11.2 24 1.6 -13.275
233 3 12.8 22.4 0 -11.2143
234 1 14.4 24 1.6 -11.802
235 4 16 22.4 0 -13.1993
236 4 17.6 24 1.6 -13.1309
237 4 19.2 22.4 0 -13.0571
238 1 20.8 24 1.6 -11.5955
239 4 22.4 22.4 0 -13.2405
240 2 24 24 1.6 -9.79271
241 4 25.6 22.4 0 -13.2453
242 3 27.2 24 1.6 -11.1673
243 4 28.8 22.4 0 -13.2583
244 4 30.4 24 1.6 -13.1935
245 4 32 22.4 0 -13.2632
246 2 33.6 24 1.6 -9.79255
247 4 35.2 22.4 0 -13.33
248 4 36.8 24 1.6 -13.2262
249 4 38.4 22.4 0 -13.4042
250 3 40 24 1.6 -11.2627
251 1 41.6 22.4 0 -11.8275
252 3 43.2 24 1.6 -11.16
253 1 44.8 22.4 0 -11.741
254 3 46.4 24 1.6 -11.1197
255 4 48 22.4 0 -13.2044
256 2 49.6 24 1.6 -9.66697
257 1 0 25.6 0 -11.5518
259 4 3.2 25.6 0 -13.1874
261 4 6.4 25.6 0 -13.1708
263 4 9.6 25.6 0 -13.2118
265 2 12.8 25.6 0 -9.79042
267 3 16 25.6 0 -11.1545
269 4 19.2 25.6 0 -13.1105
271 2 22.4 25.6 0 -9.7928
273 4 25.6 25.6 0 -13.3266
275 4 28.8 25.6 0 -13.2232
277 4 32 25.6 0 -13.1946
279 4 35.2 25.6 0 -13.2354
281 4 38.4 25.6 0 -13.32
283 4 41.6 25.6 0 -13.2948
285 1 44.8 25.6 0 -11.7118
287 1 48 25.6 0 -11.6051
258 4 1.6 27.2 1.6 -13.1835
289 4 0 28.8 0 -13.1073
260 4 4.8 27.2 1.6 -13.28
291 3 3.2 28.8 0 -11.177
262 4 8 27.2 1.6 -13.2721
293 2 6.4 28.8 0 -9.71084
264 1 11.2 27.2 1.6 -11.8265
295 3 9.6 28.8 0 -11.2202
266 1 14.4 27.2 1.6 -11.8273
297 3 12.8 28.8 0 -11.2997
268 1 17.6 27.2 1.6 -11.8143
299 3 16 28.8 0 -11.269
270 4 20.8 27.2 1.6 -13.294
301 3 19.2 28.8 0 -11.3278
272 4 24 27.2 1.6 -13.289
303 3 22.4 28.8 0 -11.2456
305 3 25.6 28.8 0 -11.168
274 4 27.2 27.2 1.6 -13.2366
307 4 28.8 28.8 0 -13.2734
276 4 30.4 27.2 1.6 -13.1411
309 1 32 28.8 0 -11.6627
278 2 33.6 27.2 1.6 -9.63246
311 1 35.2 28.8 0 -11.6936
280 2 36.8 27.2 1.6 -9.62845
313 4 38.4 28.8 0 -13.3113
282 4 40 27.2 1.6 -13.3129
315 4 41.6 28.8 0 -13.2648
284 2 43.2 27.2 1.6 -9.73282
317 4 44.8 28.8 0 -13.1255
286 4 46.4 27.2 1.6 -13.0379
319 4 48 28.8 0 -13.1292
288 4 49.6 27.2 1.6 -12.9821
290 4 1.6 30.4 1.6 -13.2325
321 4 0 32 0 -13.226
292 1 4.8 30.4 1.6 -11.6388
323 2 3.2 32 0 -9.73199
294 4 8 30.4 1.6 -13.2213
325 4 6.4 32 0 -13.2071
296 4 11.2 30.4 1.6 -13.3297
327 4 9.6 32 0 -13.2841
298 1 14.4 30.4 1.6 -11.7489
329 3 12.8 32 0 -11.1476
300 4 17.6 30.4 1.6 -13.2988
331 2 16 32 0 -9.76361
302 4 20.8 30.4 1.6 -13.3654
333 3 19.2 32 0 -11.1361
304 4 24 30.4 1.6 -13.2631
335 4 22.4 32 0 -13.3019
337 4 25.6 32 0 -13.1694
306 4 27.2 30.4 1.6 -13.2613
339 4 28.8 32 0 -13.1869
308 2 30.4 30.4 1.6 -9.69335
341 1 32 32 0 -11.696
310 2 33.6 30.4 1.6 -9.68609
343 1 35.2 32 0 -11.7078
312 2 36.8 30.4 1.6 -9.77882
345 4 38.4 32 0 -13.2976
314 3 40 30.4 1.6 -11.1746
347 4 41.6 32 0 -13.2575
316 2 43.2 30.4 1.6 -9.69743
349 4 44.8 32 0 -13.1907
318 4 46.4 30.4 1.6 -13.129
351 4 48 32 0 -13.2708
320 3 49.6 30.4 1.6 -11.0949
322 1 1.6 33.6 1.6 -11.544
353 3 0 35.2 0 -11.0466
324 4 4.8 33.6 1.6 -13.2231
355 2 3.2 35.2 0 -9.77066
326 3 8 33.6 1.6 -11.2073
357 3 6.4 35.2 0 -11.3043
328 1 11.2 33.6 1.6 -11.7197
359 3 9.6 35.2 0 -11.2432
330 1 14.4 33.6 1.6 -11.5653
361 3 12.8 35.2 0 -11.1795
332 4 17.6 33.6 1.6 -13.1474
363 4 16 35.2 0 -13.2019
334 4 20.8 33.6 1.6 -13.232
365 4 19.2 35.2 0 -13.245
336 4 24 33.6 1.6 -13.1968
367 1 22.4 35.2 0 -11.6966
369 1 25.6 35.2 0 -11.7376
338 2 27.2 33.6 1.6 -9.72687
371 4 28.8 35.2 0 -13.2411
340 4 30.4 33.6 1.6 -13.2168
373 4 32 35.2 0 -13.2112
342 3 33.6 33.6 1.6 -11.1183
375 1 35.2 35.2 0 -11.6509
344 2 36.8 33.6 1.6 -9.73187
377 4 38.4 35.2 0 -13.1746
346 3 40 33.6 1.6 -11.2502
379 4 41.6 35.2 0 -13.2122
348 4 43.2 33.6 1.6 -13.1174
381 4 44.8 35.2 0 -13.2715
350 3 46.4 33.6 1.6 -11.15
383 4 48 35.2 0 -13.3266
352 4 49.6 33.6 1.6 -13.203
354 4 1.6 36.8 1.6 -13.1617
385 4 0 38.4 0 -13.1423
356 4 4.8 36.8 1.6 -13.2535
387 4 3.2 38.4 0 -13.2549
358 4 8 36.8 1.6 -13.2616
389 3 6.4 38.4 0 -11.1974
360 4 11.2 36.8 1.6 -13.1742
391 4 9.6 38.4 0 -13.2436
362 4 14.4 36.8 1.6 -13.1621
393 1 12.8 38.4 0 -11.69
364 3 17.6 36.8 1.6 -11.2655
395 1 16 38.4 0 -11.7646
366 3 20.8 36.8 1.6 -11.1945
397 1 19.2 38.4 0 -11.8432
368 3 24 36.8 1.6 -11.0684
399 1 22.4 38.4 0 -11.8151
401 4 25.6 38.4 0 -13.2399
370 4 27.2 36.8 1.6 -13.2804
403 4 28.8 38.4 0 -13.266
372 4 30.4 36.8 1.6 -13.2309
405 4 32 38.4 0 -13.2765
374 4 33.6 36.8 1.6 -13.1618
407 4 35.2 38.4 0 -13.1442
376 4 36.8 36.8 1.6 -13.0309
409 4 38.4 38.4 0 -13.2355
378 4 40 36.8 1.6 -13.2601
411 4 41.6 38.4 0 -13.2174
380 4 43.2 36.8 1.6 -13.1774
413 4 44.8 38.4 0 -13.1929
382 3 46.4 36.8 1.6 -11.2185
415 1 48 38.4 0 -11.6829
384 2 49.6 36.8 1.6 -9.70771
386 2 1.6 40 1.6 -9.59775
417 1 0 41.6 0 -11.6853
388 4 4.8 40 1.6 -13.2176
419 1 3.2 41.6 0 -11.7404
390 4 8 40 1.6 -13.1939
421 4 6.4 41.6 0 -13.3407
392 3 11.2 40 1.6 -11.1942
423 4 9.6 41.6 0 -13.2548
394 3 14.4 40 1.6 -11.1628
425 1 12.8 41.6 0 -11.7187
396 3 17.6 40 1.6 -11.2775
427 1 16 41.6 0 -11.766
398 3 20.8 40 1.6 -11.1978
429 1 19.2 41.6 0 -11.7974
400 4 24 40 1.6 -13.2903
431 4 22.4 41.6 0 -13.2751
433 4 25.6 41.6 0 -13.1654
402 4 27.2 40 1.6 -13.1732
435 4 28.8 41.6 0 -13.2564
404 4 30.4 40 1.6 -13.3053
437 4 32 41.6 0 -13.3554
406 1 33.6 40 1.6 -11.653
439 4 35.2 41.6 0 -13.1632
408 4 36.8 40 1.6 -13.157
441 4 38.4 41.6 0 -13.1902
410 4 40 40 1.6 -13.2378
443 2 41.6 41.6 0 -9.72203
412 4 43.2 40 1.6 -13.1838
445 4 44.8 41.6 0 -13.0814
414 4 46.4 40 1.6 -13.0864
447 1 48 41.6 0 -11.587
416 4 49.6 40 1.6 -13.078
418 3 1.6 43.2 1.6 -11.2054
449 1 0 44.8 0 -11.8122
420 3 4.8 43.2 1.6 -11.2026
451 1 3.2 44.8 0 -11.8122
422 3 8 43.2 1.6 -11.2389
453 1 6.4 44.8 0 -11.7593
424 3 11.2 43.2 1.6 -11.1934
455 1 9.6 44.8 0 -11.7619
426 4 14.4 43.2 1.6 -13.1209
457 1 12.8 44.8 0 -11.6482
428 3 17.6 43.2 1.6 -11.1154
459 4 16 44.8 0 -13.149
430 4 20.8 43.2 1.6 -13.1596
461 1 19.2 44.8 0 -11.751
432 2 24 43.2 1.6 -9.67121
463 1 22.4 44.8 0 -11.7383
465 1 25.6 44.8 0 -11.6564
434 4 27.2 43.2 1.6 -13.1415
467 4 28.8 44.8 0 -13.1235
436 4 30.4 43.2 1.6 -13.301
469 3 32 44.8 0 -11.2731
438 4 33.6 43.2 1.6 -13.2198
471 4 35.2 44.8 0 -13.1244
440 1 36.8 43.2 1.6 -11.5713
473 2 38.4 44.8 0 -9.73334
442 1 40 43.2 1.6 -11.6794
475 4 41.6 44.8 0 -13.293
444 4 43.2 43.2 1.6 -13.1555
477 4 44.8 44.8 0 -13.1611
446 4 46.4 43.2 1.6 -13.0876
479 1 48 44.8 0 -11.6788
448 3 49.6 43.2 1.6 -11.0792
450 3 1.6 46.4 1.6 -11.2429
481 1 0 48 0 -11.7978
452 3 4.8 46.4 1.6 -11.2045
483 1 3.2 48 0 -11.8123
454 3 8 46.4 1.6 -11.1258
485 1 6.4 48 0 -11.7467
456 3 11.2 46.4 1.6 -11.1631
487 1 9.6 48 0 -11.7297
458 4 14.4 46.4 1.6 -13.0385
489 4 12.8 48 0 -13.1868
460 3 17.6 46.4 1.6 -11.1927
491 1 16 48 0 -11.6973
462 3 20.8 46.4 1.6 -11.2009
493 1 19.2 48 0 -11.7502
464 3 24 46.4 1.6 -11.2236
495 1 22.4 48 0 -11.7955
497 4 25.6 48 0 -13.1604
466 4 27.2 46.4 1.6 -13.07
499 4 28.8 48 0 -13.0383
468 1 30.4 46.4 1.6 -11.6935
501 3 32 48 0 -11.2256
470 1 33.6 46.4 1.6 -11.7471
503 3 35.2 48 0 -11.2
472 1 36.8 46.4 1.6 -11.6983
505 3 38.4 48 0 -11.1063
474 4 40 46.4 1.6 -13.2389
507 2 41.6 48 0 -9.70728
476 4 43.2 46.4 1.6 -13.2296
509 4 44.8 48 0 -13.1994
478 3 46.4 46.4 1.6 -11.1004
511 4 48 48 0 -13.241
480 3 49.6 46.4 1.6 -11.2387
482 3 1.6 49.6 1.6 -11.1195
484 3 4.8 49.6 1.6 -11.2008
486 3 8 49.6 1.6 -11.2382
488 2 11.2 49.6 1.6 -9.65681
490 2 14.4 49.6 1.6 -9.65708
492 3 17.6 49.6 1.6 -11.203
494 2 20.8 49.6 1.6 -9.71465
496 4 24 49.6 1.6 -13.1868
498 1 27.2 49.6 1.6 -11.5685
500 1 30.4 49.6 1.6 -11.6925
502 1 33.6 49.6 1.6 -11.7614
504 1 36.8 49.6 1.6 -11.6782
506 4 40 49.6 1.6 -13.1911
508 4 43.2 49.6 1.6 -12.9755
510 4 46.4 49.6 1.6 -13.1655
512 4 49.6 49.6 1.6 -13.1177
513 1 0 0 3.2 -11.7259
514 3 1.6 1.6 4.8 -11.2018
515 4 3.2 0 3.2 -13.2533
516 2 4.8 1.6 4.8 -9.7272
517 4 6.4 0 3.2 -13.2435
518 4 8 1.6 4.8 -13.1499
519 4 9.6 0 3.2 -13.2724
520 3 11.2 1.6 4.8 -11.0747
521 1 12.8 0 3.2 -11.6623
522 2 14.4 1.6 4.8 -9.71453
523 4 16 0 3.2 -13.2493
524 3 17.6 1.6 4.8 -11.1634
525 1 19.2 0 3.2 -11.7664
526 4 20.8 1.6 4.8 -13.112
527 1 22.4 0 3.2 -11.6549
528 2 24 1.6 4.8 -9.75983
529 4 25.6 0 3.2 -13.1353
530 2 27.2 1.6 4.8 -9.70594
531 4 28.8 0 3.2 -13.1778
532 4 30.4 1.6 4.8 -13.2069
533 3 32 0 3.2 -11.0256
534 1 33.6 1.6 4.8 -11.5864
535 4 35.2 0 3.2 -13.1716
536 3 36.8 1.6 4.8 -11.1095
537 4 38.4 0 3.2 -13.2158
538 3 40 1.6 4.8 -11.2292
539 4 41.6 0 3.2 -13.1881
540 2 43.2 1.6 4.8 -9.66626
541 1 44.8 0 3.2 -11.6367
542 4 46.4 1.6 4.8 -13.2084
543 4 48 0 3.2 -13.2154
544 3 49.6 1.6 4.8 -11.0721
545 1 0 3.2 3.2 -11.7116
546 3 1.6 4.8 4.8 -11.1643
547 1 3.2 3.2 3.2 -11.7579
548 3 4.8 4.8 4.8 -11.2037
549 4 6.4 3.2 3.2 -13.2145
550 2 8 4.8 4.8 -9.71759
551 4 9.6 3.2 3.2 -13.2536
552 3 11.2 4.8 4.8 -11.2029
553 1 12.8 3.2 3.2 -11.771
554 3 14.4 4.8 4.8 -11.1664
555 1 16 3.2 3.2 -11.7658
556 3 17.6 4.8 4.8 -11.0809
557 1 19.2 3.2 3.2 -11.7177
558 3 20.8 4.8 4.8 -11.1651
559 1 22.4 3.2 3.2 -11.705
560 3 24 4.8 4.8 -11.158
561 1 25.6 3.2 3.2 -11.7024
562 3 27.2 4.8 4.8 -11.272
563 1 28.8 3.2 3.2 -11.6352
564 3 30.4 4.8 4.8 -11.1237
565 1 32 3.2 3.2 -11.5884
566 3 33.6 4.8 4.8 -11.1157
567 1 35.2 3.2 3.2 -11.6265
568 3 36.8 4.8 4.8 -11.3083
569 1 38.4 3.2 3.2 -11.7717
570 3 40 4.8 4.8 -11.1985
571 1 41.6 3.2 3.2 -11.7734
572 3 43.2 4.8 4.8 -11.264
573 1 44.8 3.2 3.2 -11.7481
574 3 46.4 4.8 4.8 -11.145
575 1 48 3.2 3.2 -11.7024
576 4 49.6 4.8 4.8 -13.0768
577 4 0 6.4 3.2 -13.1579
578 3 1.6 8 4.8 -11.1633
579 1 3.2 6.4 3.2 -11.7216
580 3 4.8 8 4.8 -11.2031
581 1 6.4 6.4 3.2 -11.7827
582 3 8 8 4.8 -11.2673
583 1 9.6 6.4 3.2 -11.8153
584 2 11.2 8 4.8 -9.68929
585 1 12.8 6.4 3.2 -11.7986
586 2 14.4 8 4.8 -9.68675
587 1 16 6.4 3.2 -11.6907
588 4 17.6 8 4.8 -13.1002
589 1 19.2 6.4 3.2 -11.7416
590 3 20.8 8 4.8 -11.2023
591 1 22.4 6.4 3.2 -11.7853
592 3 24 8 4.8 -11.2033
593 4 25.6 6.4 3.2 -13.2189
594 3 27.2 8 4.8 -11.2031
595 1 28.8 6.4 3.2 -11.7245
596 3 30.4 8 4.8 -11.1251
597 1 32 6.4 3.2 -11.7552
598 3 33.6 8 4.8 -11.3094
599 4 35.2 6.4 3.2 -13.3054
600 3 36.8 8 4.8 -11.2307
601 4 38.4 6.4 3.2 -13.2565
602 4 40 8 4.8 -13.1956
603 4 41.6 6.4 3.2 -13.3075
604 4 43.2 8 4.8 -13.2393
605 4 44.8 6.4 3.2 -13.2714
606 2 46.4 8 4.8 -9.70209
607 1 48 6.4 3.2 -11.6898
608 4 49.6 8 4.8 -13.068
609 4 0 9.6 3.2 -13.3359
610 3 1.6 11.2 4.8 -11.2331
611 1 3.2 9.6 3.2 -11.6827
612 3 4.8 11.2 4.8 -11.0784
613 4 6.4 9.6 3.2 -13.2684
614 3 8 11.2 4.8 -11.269
615 4 9.6 9.6 3.2 -13.3262
616 4 11.2 11.2 4.8 -13.1957
617 4 12.8 9.6 3.2 -13.2233
618 3 14.4 11.2 4.8 -11.121
619 1 16 9.6 3.2 -11.7228
620 3 17.6 11.2 4.8 -11.1244
621 4 19.2 9.6 3.2 -13.314
622 3 20.8 11.2 4.8 -11.2775
623 1 22.4 9.6 3.2 -11.7786
624 3 24 11.2 4.8 -11.1648
625 1 25.6 9.6 3.2 -11.7048
626 3 27.2 11.2 4.8 -11.2037
627 1 28.8 9.6 3.2 -11.7541
628 2 30.4 11.2 4.8 -9.83046
629 1 32 9.6 3.2 -11.7816
630 3 33.6 11.2 4.8 -11.1927
631 4 35.2 9.6 3.2 -13.3316
632 3 36.8 11.2 4.8 -11.2253
633 4 38.4 9.6 3.2 -13.2805
634 3 40 11.2 4.8 -11.2218
635 4 41.6 9.6 3.2 -13.2707
636 3 43.2 11.2 4.8 -11.2254
637 1 44.8 9.6 3.2 -11.6959
638 3 46.4 11.2 4.8 -11.1991
639 4 48 9.6 3.2 -13.2452
640 3 49.6 11.2 4.8 -11.2642
641 4 0 12.8 3.2 -13.3839
642 3 1.6 14.4 4.8 -11.2364
643 1 3.2 12.8 3.2 -11.6981
644 4 4.8 14.4 4.8 -13.1053
645 1 6.4 12.8 3.2 -11.6854
646 3 8 14.4 4.8 -11.1577
647 4 9.6 12.8 3.2 -13.3094
648 3 11.2 14.4 4.8 -11.2391
649 4 12.8 12.8 3.2 -13.3104
650 3 14.4 14.4 4.8 -11.117
651 1 16 12.8 3.2 -11.7032
652 4 17.6 14.4 4.8 -13.0521
653 1 19.2 12.8 3.2 -11.6981
654 3 20.8 14.4 4.8 -11.119
655 1 22.4 12.8 3.2 -11.7281
656 3 24 14.4 4.8 -11.2377
657 1 25.6 12.8 3.2 -11.6968
658 2 27.2 14.4 4.8 -9.73217
659 1 28.8 12.8 3.2 -11.7298
660 3 30.4 14.4 4.8 -11.1471
661 4 32 12.8 3.2 -13.2184
662 4 33.6 14.4 4.8 -13.2472
663 4 35.2 12.8 3.2 -13.19
664 2 36.8 14.4 4.8 -9.70283
665 4 38.4 12.8 3.2 -13.273
666 4 40 14.4 4.8 -13.146
667 4 41.6 12.8 3.2 -13.3068
668 3 43.2 14.4 4.8 -11.2382
669 1 44.8 12.8 3.2 -11.7974
670 3 46.4 14.4 4.8 -11.2341
671 1 48 12.8 3.2 -11.8835
672 3 49.6 14.4 4.8 -11.3395
673 1 0 16 3.2 -11.8699
674 3 1.6 17.6 4.8 -11.2971
675 1 3.2 16 3.2 -11.7179
676 2 4.8 17.6 4.8 -9.71868
677 1 6.4 16 3.2 -11.5751
678 4 8 17.6 4.8 -13.11
679 1 9.6 16 3.2 -11.6822
680 3 11.2 17.6 4.8 -11.0226
681 1 12.8 16 3.2 -11.7257
682 4 14.4 17.6 4.8 -13.042
683 1 16 16 3.2 -11.6213
684 3 17.6 17.6 4.8 -11.036
685 1 19.2 16 3.2 -11.7216
686 3 20.8 17.6 4.8 -11.3112
687 4 22.4 16 3.2 -13.2507
688 3 24 17.6 4.8 -11.1934
689 4 25.6 16 3.2 -13.2022
690 3 27.2 17.6 4.8 -11.1514
691 4 28.8 16 3.2 -13.2562
692 3 30.4 17.6 4.8 -11.3084
693 4 32 16 3.2 -13.2704
694 3 33.6 17.6 4.8 -11.154
695 4 35.2 16 3.2 -13.2061
696 4 36.8 17.6 4.8 -13.0737
697 4 38.4 16 3.2 -13.1385
698 2 40 17.6 4.8 -9.59871
699 1 41.6 16 3.2 -11.7255
700 3 43.2 17.6 4.8 -11.1991
701 1 44.8 16 3.2 -11.78
702 4 46.4 17.6 4.8 -13.1927
703 1 48 16 3.2 -11.7977
704 3 49.6 17.6 4.8 -11.2675
705 4 0 19.2 3.2 -13.3179
706 3 1.6 20.8 4.8 -11.2495
707 4 3.2 19.2 3.2 -13.3527
708 3 4.8 20.8 4.8 -11.3015
709 1 6.4 19.2 3.2 -11.7003
710 3 8 20.8 4.8 -11.0292
711 4 9.6 19.2 3.2 -13.1712
712 4 11.2 20.8 4.8 -13.2658
713 2 12.8 19.2 3.2 -9.76527
714 4 14.4 20.8 4.8 -13.1855
715 1 16 19.2 3.2 -11.5891
716 4 17.6 20.8 4.8 -13.2318
717 1 19.2 19.2 3.2 -11.7368
718 3 20.8 20.8 4.8 -11.0661
719 1 22.4 19.2 3.2 -11.735
720 4 24 20.8 4.8 -13.1406
721 1 25.6 19.2 3.2 -11.6885
722 4 27.2 20.8 4.8 -13.0856
723 4 28.8 19.2 3.2 -13.2961
724 3 30.4 20.8 4.8 -11.1124
725 1 32 19.2 3.2 -11.7967
726 4 33.6 20.8 4.8 -13.1158
727 1 35.2 19.2 3.2 -11.6984
728 4 36.8 20.8 4.8 -12.9918
729 4 38.4 19.2 3.2 -13.1242
730 4 40 20.8 4.8 -13.1605
731 1 41.6 19.2 3.2 -11.7279
732 3 43.2 20.8 4.8 -11.1561
733 1 44.8 19.2 3.2 -11.7979
734 3 46.4 20.8 4.8 -11.1645
735 1 48 19.2 3.2 -11.734
736 3 49.6 20.8 4.8 -11.2706
737 4 0 22.4 3.2 -13.247
738 4 1.6 24 4.8 -13.1968
739 4 3.2 22.4 3.2 -13.3552
740 2 4.8 24 4.8 -9.79957
741 1 6.4 22.4 3.2 -11.7905
742 4 8 24 4.8 -13.1789
743 4 9.6 22.4 3.2 -13.2087
744 1 11.2 24 4.8 -11.6439
745 3 12.8 22.4 3.2 -11.2629
746 1 14.4 24 4.8 -11.8256
747 3 16 22.4 3.2 -11.1843
748 4 17.6 24 4.8 -13.2596
749 4 19.2 22.4 3.2 -13.1573
750 4 20.8 24 4.8 -13.1696
751 4 22.4 22.4 3.2 -13.2142
752 1 24 24 4.8 -11.6415
753 4 25.6 22.4 3.2 -13.1423
754 4 27.2 24 4.8 -13.1648
755 4 28.8 22.4 3.2 -13.2587
756 2 30.4 24 4.8 -9.71088
757 4 32 22.4 3.2 -13.2746
758 3 33.6 24 4.8 -11.1222
759 4 35.2 22.4 3.2 -13.2057
760 2 36.8 24 4.8 -9.63121
761 4 38.4 22.4 3.2 -13.2393
762 3 40 24 4.8 -11.1986
763 1 41.6 22.4 3.2 -11.8042
764 2 43.2 24 4.8 -9.77421
765 1 44.8 22.4 3.2 -11.7806
766 2 46.4 24 4.8 -9.70706
767 1 48 22.4 3.2 -11.7565
768 3 49.6 24 4.8 -11.1204
769 4 0 25.6 3.2 -13.134
771 4 3.2 25.6 3.2 -13.291
773 3 6.4 25.6 3.2 -11.1271
775 3 9.6 25.6 3.2 -11.1921
777 3 12.8 25.6 3.2 -11.2385
779 3 16 25.6 3.2 -11.2755
781 2 19.2 25.6 3.2 -9.73693
783 3 22.4 25.6 3.2 -11.1444
785 4 25.6 25.6 3.2 -13.1895
787 4 28.8 25.6 3.2 -13.2004
789 1 32 25.6 3.2 -11.638
791 1 35.2 25.6 3.2 -11.6301
793 1 38.4 25.6 3.2 -11.6691
795 4 41.6 25.6 3.2 -13.3085
797 1 44.8 25.6 3.2 -11.7058
799 1 48 25.6 3.2 -11.6682
770 4 1.6 27.2 4.8 -13.1802
801 4 0 28.8 3.2 -13.2884
772 1 4.8 27.2 4.8 -11.6885
803 3 3.2 28.8 3.2 -11.1365
774 1 8 27.2 4.8 -11.713
805 4 6.4 28.8 3.2 -13.1671
776 4 11.2 27.2 4.8 -13.2677
807 3 9.6 28.8 3.2 -11.2579
778 1 14.4 27.2 4.8 -11.8034
809 3 12.8 28.8 3.2 -11.3044
780 1 17.6 27.2 4.8 -11.7962
811 3 16 28.8 3.2 -11.1979
782 4 20.8 27.2 4.8 -13.3249
813 3 19.2 28.8 3.2 -11.2591
784 1 24 27.2 4.8 -11.7422
815 4 22.4 28.8 3.2 -13.3481
817 2 25.6 28.8 3.2 -9.73347
786 1 27.2 27.2 4.8 -11.7492
819 3 28.8 28.8 3.2 -11.1782
788 4 30.4 27.2 4.8 -13.2122
821 4 32 28.8 3.2 -13.1874
790 3 33.6 27.2 4.8 -11.0399
823 1 35.2 28.8 3.2 -11.6942
792 4 36.8 27.2 4.8 -13.0158
825 4 38.4 28.8 3.2 -13.2537
794 3 40 27.2 4.8 -11.1527
827 4 41.6 28.8 3.2 -13.2855
796 3 43.2 27.2 4.8 -11.2372
829 1 44.8 28.8 3.2 -11.7075
798 3 46.4 27.2 4.8 -11.1565
831 4 48 28.8 3.2 -13.2275
800 2 49.6 27.2 4.8 -9.7332
802 2 1.6 30.4 4.8 -9.75725
833 4 0 32 3.2 -13.123
804 4 4.8 30.4 4.8 -13.2099
835 4 3.2 32 3.2 -13.1492
806 1 8 30.4 4.8 -11.6577
837 4 6.4 32 3.2 -13.1391
808 4 11.2 30.4 4.8 -13.2917
839 3 9.6 32 3.2 -11.1738
810 4 14.4 30.4 4.8 -13.2502
841 4 12.8 32 3.2 -13.0774
812 4 17.6 30.4 4.8 -13.2768
843 4 16 32 3.2 -13.0755
814 4 20.8 30.4 4.8 -13.3313
845 4 19.2 32 3.2 -13.2434
816 4 24 30.4 4.8 -13.2084
847 3 22.4 32 3.2 -11.0802
849 4 25.6 32 3.2 -13.1302
818 1 27.2 30.4 4.8 -11.6826
851 2 28.8 32 3.2 -9.77164
820 4 30.4 30.4 4.8 -13.2065
853 1 32 32 3.2 -11.6911
822 3 33.6 30.4 4.8 -11.2349
855 1 35.2 32 3.2 -11.7696
824 3 36.8 30.4 4.8 -11.1469
857 4 38.4 32 3.2 -13.2937
826 4 40 30.4 4.8 -13.2409
859 1 41.6 32 3.2 -11.7155
828 3 43.2 30.4 4.8 -11.1949
861 1 44.8 32 3.2 -11.6896
830 3 46.4 30.4 4.8 -11.2681
863 1 48 32 3.2 -11.7773
832 3 49.6 30.4 4.8 -11.3347
834 4 1.6 33.6 4.8 -13.125
865 1 0 35.2 3.2 -11.6329
836 3 4.8 33.6 4.8 -11.1284
867 4 3.2 35.2 3.2 -13.1763
838 4 8 33.6 4.8 -13.2586
869 4 6.4 35.2 3.2 -13.3282
840 4 11.2 33.6 4.8 -13.187
871 4 9.6 35.2 3.2 -13.2746
842 4 14.4 33.6 4.8 -13.108
873 4 12.8 35.2 3.2 -13.1191
844 4 17.6 33.6 4.8 -13.1848
875 4 16 35.2 3.2 -13.1691
846 2 20.8 33.6 4.8 -9.76457
877 4 19.2 35.2 3.2 -13.2346
848 4 24 33.6 4.8 -13.1399
879 4 22.4 35.2 3.2 -13.2002
881 4 25.6 35.2 3.2 -13.08
850 4 27.2 33.6 4.8 -13.1448
883 3 28.8 35.2 3.2 -11.2188
852 4 30.4 33.6 4.8 -13.1993
885 4 32 35.2 3.2 -13.2443
854 3 33.6 33.6 4.8 -11.1847
887 4 35.2 35.2 3.2 -13.1178
856 2 36.8 33.6 4.8 -9.82017
889 4 38.4 35.2 3.2 -13.2969
858 2 40 33.6 4.8 -9.78978
891 4 41.6 35.2 3.2 -13.1631
860 2 43.2 33.6 4.8 -9.72254
893 1 44.8 35.2 3.2 -11.6554
862 3 46.4 33.6 4.8 -11.1207
895 1 48 35.2 3.2 -11.7392
864 3 49.6 33.6 4.8 -11.1585
866 3 1.6 36.8 4.8 -11.1955
897 1 0 38.4 3.2 -11.7108
868 3 4.8 36.8 4.8 -11.2937
899 4 3.2 38.4 3.2 -13.2365
870 2 8 36.8 4.8 -9.7893
901 4 6.4 38.4 3.2 -13.2487
872 3 11.2 36.8 4.8 -11.1929
903 1 9.6 38.4 3.2 -11.6852
874 3 14.4 36.8 4.8 -11.2288
905 1 12.8 38.4 3.2 -11.76
876 3 17.6 36.8 4.8 -11.2234
907 4 16 38.4 3.2 -13.3364
878 4 20.8 36.8 4.8 -13.1337
909 1 19.2 38.4 3.2 -11.8279
880 1 24 36.8 4.8 -11.5394
911 4 22.4 38.4 3.2 -13.244
913 4 25.6 38.4 3.2 -13.1539
882 1 27.2 36.8 4.8 -11.6279
915 3 28.8 38.4 3.2 -11.2657
884 1 30.4 36.8 4.8 -11.7679
917 3 32 38.4 3.2 -11.1883
886 4 33.6 36.8 4.8 -13.1664
919 4 35.2 38.4 3.2 -13.1254
888 1 36.8 36.8 4.8 -11.6901
921 3 38.4 38.4 3.2 -11.1832
890 4 40 36.8 4.8 -13.2715
923 3 41.6 38.4 3.2 -11.1783
892 4 43.2 36.8 4.8 -13.1875
925 3 44.8 38.4 3.2 -11.1619
894 4 46.4 36.8 4.8 -13.144
927 4 48 38.4 3.2 -13.2224
896 3 49.6 36.8 4.8 -11.203
898 3 1.6 40 4.8 -11.2408
929 1 0 41.6 3.2 -11.7639
900 3 4.8 40 4.8 -11.2387
931 1 3.2 41.6 3.2 -11.7662
902 3 8 40 4.8 -11.1635
933 1 6.4 41.6 3.2 -11.7528
904 3 11.2 40 4.8 -11.3089
935 1 9.6 41.6 3.2 -11.8104
906 3 14.4 40 4.8 -11.2317
937 4 12.8 41.6 3.2 -13.3284
908 3 17.6 40 4.8 -11.2004
939 1 16 41.6 3.2 -11.7397
910 3 20.8 40 4.8 -11.2317
941 1 19.2 41.6 3.2 -11.7279
912 2 24 40 4.8 -9.73725
943 4 22.4 41.6 3.2 -13.2341
945 2 25.6 41.6 3.2 -9.76732
914 4 27.2 40 4.8 -13.2681
947 3 28.8 41.6 3.2 -11.2585
916 1 30.4 40 4.8 -11.8235
949 3 32 41.6 3.2 -11.2275
918 4 33.6 40 4.8 -13.3014
951 2 35.2 41.6 3.2 -9.73224
920 4 36.8 40 4.8 -13.27
953 2 38.4 41.6 3.2 -9.70701
922 1 40 40 4.8 -11.6462
955 4 41.6 41.6 3.2 -13.1288
924 4 43.2 40 4.8 -13.1472
957 4 44.8 41.6 3.2 -13.1474
926 4 46.4 40 4.8 -13.2343
959 4 48 41.6 3.2 -13.1869
928 3 49.6 40 4.8 -11.1626
930 3 1.6 43.2 4.8 -11.2426
961 1 0 44.8 3.2 -11.8415
932 3 4.8 43.2 4.8 -11.2042
963 1 3.2 44.8 3.2 -11.8416
934 3 8 43.2 4.8 -11.2045
965 1 6.4 44.8 3.2 -11.8123
936 3 11.2 43.2 4.8 -11.3025
967 1 9.6 44.8 3.2 -11.7961
938 2 14.4 43.2 4.8 -9.69894
969 4 12.8 44.8 3.2 -13.1989
940 4 17.6 43.2 4.8 -13.1076
971 4 16 44.8 3.2 -13.2008
942 2 20.8 43.2 4.8 -9.60527
973 4 19.2 44.8 3.2 -13.2457
944 4 24 43.2 4.8 -13.2096
975 1 22.4 44.8 3.2 -11.6928
977 4 25.6 44.8 3.2 -13.2185
946 4 27.2 43.2 4.8 -13.2255
979 4 28.8 44.8 3.2 -13.1306
948 1 30.4 43.2 4.8 -11.6916
981 3 32 44.8 3.2 -11.154
950 4 33.6 43.2 4.8 -13.2632
983 4 35.2 44.8 3.2 -13.1246
952 4 36.8 43.2 4.8 -13.2929
985 3 38.4 44.8 3.2 -11.2162
954 4 40 43.2 4.8 -13.2352
987 3 41.6 44.8 3.2 -11.1741
956 4 43.2 43.2 4.8 -13.2219
989 4 44.8 44.8 3.2 -13.2452
958 3 46.4 43.2 4.8 -11.1496
991 1 48 44.8 3.2 -11.8046
960 3 49.6 43.2 4.8 -11.2773
962 3 1.6 46.4 4.8 -11.1221
993 1 0 48 3.2 -11.7411
964 3 4.8 46.4 4.8 -11.2013
995 1 3.2 48 3.2 -11.7856
966 2 8 46.4 4.8 -9.74232
997 1 6.4 48 3.2 -11.7996
968 2 11.2 46.4 4.8 -9.73163
999 1 9.6 48 3.2 -11.7845
970 4 14.4 46.4 4.8 -13.1056
1001 1 12.8 48 3.2 -11.6185
972 3 17.6 46.4 4.8 -11.263
1003 1 16 48 3.2 -11.6676
974 3 20.8 46.4 4.8 -11.1937
1005 1 19.2 48 3.2 -11.8549
976 2 24 46.4 4.8 -9.75682
1007 4 22.4 48 3.2 -13.2785
1009 3 25.6 48 3.2 -11.1556
978 4 27.2 46.4 4.8 -13.2208
1011 2 28.8 48 3.2 -9.67454
980 4 30.4 46.4 4.8 -13.1036
1013 3 32 48 3.2 -11.2035
982 1 33.6 46.4 4.8 -11.6839
1015 3 35.2 48 3.2 -11.1188
984 2 36.8 46.4 4.8 -9.78857
1017 4 38.4 48 3.2 -13.2241
986 4 40 46.4 4.8 -13.3349
1019 4 41.6 48 3.2 -13.1357
988 4 43.2 46.4 4.8 -13.178
1021 4 44.8 48 3.2 -13.1515
990 2 46.4 46.4 4.8 -9.81518
1023 4 48 48 3.2 -13.3088
992 3 49.6 46.4 4.8 -11.2411
994 4 1.6 49.6 4.8 -13.1974
996 2 4.8 49.6 4.8 -9.7864
998 3 8 49.6 4.8 -11.2276
1000 3 11.2 49.6 4.8 -11.2227
1002 4 14.4 49.6 4.8 -13.0722
1004 3 17.6 49.6 4.8 -11.1964
1006 3 20.8 49.6 4.8 -11.1549
1008 4 24 49.6 4.8 -13.1846
1010 4 27.2 49.6 4.8 -13.1655
1012 4 30.4 49.6 4.8 -13.2712
1014 1 33.6 49.6 4.8 -11.7084
1016 4 36.8 49.6 4.8 -13.2293
1018 2 40 49.6 4.8 -9.76415
1020 4 43.2 49.6 4.8 -13.1637
1022 3 46.4 49.6 4.8 -11.0983
1024 3 49.6 49.6 4.8 -11.1895
1025 1 0 0 6.4 -11.7512
1026 3 1.6 1.6 8 -11.1595
1027 4 3.2 0 6.4 -13.3105
1028 3 4.8 1.6 8 -11.2
1029 1 6.4 0 6.4 -11.7551
1030 2 8 1.6 8 -9.66277
1031 4 9.6 0 6.4 -13.261
1032 4 11.2 1.6 8 -13.1641
1033 1 12.8 0 6.4 -11.735
1034 3 14.4 1.6 8 -11.1624
1035 1 16 0 6.4 -11.7299
1036 3 17.6 1.6 8 -11.1235
1037 1 19.2 0 6.4 -11.7214
1038 2 20.8 1.6 8 -9.7514
1039 4 22.4 0 6.4 -13.2124
1040 3 24 1.6 8 -11.0936
1041 4 25.6 0 6.4 -13.1936
1042 1 27.2 1.6 8 -11.6179
1043 3 28.8 0 6.4 -11.1011
1044 1 30.4 1.6 8 -11.6213
1045 3 32 0 6.4 -11.104
1046 4 33.6 1.6 8 -13.1457
1047 4 35.2 0 6.4 -13.2314
1048 4 36.8 1.6 8 -13.1915
1049 4 38.4 0 6.4 -13.2263
1050 4 40 1.6 8 -13.1282
1051 4 41.6 0 6.4 -13.2581
1052 4 43.2 1.6 8 -13.1687
1053 4 44.8 0 6.4 -13.2417
1054 4 46.4 1.6 8 -13.1279
1055 4 48 0 6.4 -13.2058
1056 4 49.6 1.6 8 -13.1543
1057 1 0 3.2 6.4 -11.7091
1058 3 1.6 4.8 8 -11.2065
1059 1 3.2 3.2 6.4 -11.8281
1060 3 4.8 4.8 8 -11.1247
1061 1 6.4 3.2 6.4 -11.6721
1062 2 8 4.8 8 -9.6917
1063 1 9.6 3.2 6.4 -11.6859
1064 3 11.2 4.8 8 -11.1168
1065 1 12.8 3.2 6.4 -11.7533
1066 3 14.4 4.8 8 -11.2411
1067 1 16 3.2 6.4 -11.8123
1068 3 17.6 4.8 8 -11.2048
1069 1 19.2 3.2 6.4 -11.7396
1070 2 20.8 4.8 8 -9.75371
1071 4 22.4 3.2 6.4 -13.2439
1072 4 24 4.8 8 -13.1989
1073 4 25.6 3.2 6.4 -13.2879
1074 3 27.2 4.8 8 -11.1849
1075 4 28.8 3.2 6.4 -13.2179
1076 4 30.4 4.8 8 -13.1039
1077 4 32 3.2 6.4 -13.1842
1078 2 33.6 4.8 8 -9.76224
1079 4 35.2 3.2 6.4 -13.2182
1080 3 36.8 4.8 8 -11.2283
1081 1 38.4 3.2 6.4 -11.7683
1082 3 40 4.8 8 -11.1504
1083 1 41.6 3.2 6.4 -11.728
1084 2 43.2 4.8 8 -9.78987
1085 4 44.8 3.2 6.4 -13.1615
1086 4 46.4 4.8 8 -13.2549
1087 4 48 3.2 6.4 -13.2252
1088 2 49.6 4.8 8 -9.63513
1089 1 0 6.4 6.4 -11.6578
1090 3 1.6 8 8 -11.0818
1091 1 3.2 6.4 6.4 -11.8416
1092 3 4.8 8 8 -11.1241
1093 1 6.4 6.4 6.4 -11.7806
1094 3 8 8 8 -11.2021
1095 1 9.6 6.4 6.4 -11.7265
1096 4 11.2 8 8 -13.1512
1097 1 12.8 6.4 6.4 -11.7347
1098 3 14.4 8 8 -11.1624
1099 1 16 6.4 6.4 -11.7469
1100 3 17.6 8 8 -11.1258
1101 1 19.2 6.4 6.4 -11.7504
1102 3 20.8 8 8 -11.2032
1103 1 22.4 6.4 6.4 -11.7547