ITEM: TIMESTEP
0
ITEM: NUMBER OF ATOMS
8192
ITEM: BOX BOUNDS pp pp pp
0.0000000000000000e+00 5.1200000000000003e+01
0.0000000000000000e+00 5.1200000000000003e+01
0.0000000000000000e+00 5.1200000000000003e+01
ITEM: ATOMS id type x y z c_eng
1 4 0 0 0 -13.276
2 2 1.6 1.6 1.6 -9.71903
3 4 3.2 0 0 -13.2987
4 3 4.8 1.6 1.6 -11.2365
5 1 6.4 0 0 -11.8105
6 3 8 1.6 1.6 -11.2031
7 1 9.6 0 0 -11.7803
8 3 11.2 1.6 1.6 -11.2405
9 1 12.8 0 0 -11.8121
10 2 14.4 1.6 1.6 -9.74265
11 1 16 0 0 -11.7845
12 3 17.6 1.6 1.6 -11.1935
13 4 19.2 0 0 -13.24
14 3 20.8 1.6 1.6 -11.1933
15 1 22.4 0 0 -11.6441
16 4 24 1.6 1.6 -13.1235
17 4 25.6 0 0 -13.1999
18 3 27.2 1.6 1.6 -11.0635
19 4 28.8 0 0 -13.1836
20 4 30.4 1.6 1.6 -13.1559
21 2 32 0 0 -9.73907
22 4 33.6 1.6 1.6 -13.2998
23 4 35.2 0 0 -13.2571
24 3 36.8 1.6 1.6 -11.0915
25 4 38.4 0 0 -13.1392
26 4 40 1.6 1.6 -13.119
27 1 41.6 0 0 -11.6758
28 3 43.2 1.6 1.6 -11.2361
29 1 44.8 0 0 -11.7829
30 3 46.4 1.6 1.6 -11.0789
31 1 48 0 0 -11.7342
32 2 49.6 1.6 1.6 -9.68274
33 1 0 3.2 0 -11.6588
34 3 1.6 4.8 1.6 -11.1173
35 1 3.2 3.2 0 -11.7704
36 3 4.8 4.8 1.6 -11.2372
37 1 6.4 3.2 0 -11.8111
38 3 8 4.8 1.6 -11.2402
39 1 9.6 3.2 0 -11.8413
40 3 11.2 4.8 1.6 -11.2409
41 1 12.8 3.2 0 -11.7688
42 3 14.4 4.8 1.6 -11.1151
43 1 16 3.2 0 -11.7148
44 2 17.6 4.8 1.6 -9.78941
45 4 19.2 3.2 0 -13.2656
46 3 20.8 4.8 1.6 -11.1486
47 4 22.4 3.2 0 -13.176
48 4 24 4.8 1.6 -13.1636
49 1 25.6 3.2 0 -11.7138
50 3 27.2 4.8 1.6 -11.073
51 1 28.8 3.2 0 -11.6338
52 4 30.4 4.8 1.6 -13.1339
53 3 32 3.2 0 -11.1174
54 3 33.6 4.8 1.6 -11.1653
55 4 35.2 3.2 0 -13.3033
56 4 36.8 4.8 1.6 -13.2018
57 4 38.4 3.2 0 -13.2574
58 2 40 4.8 1.6 -9.68827
59 1 41.6 3.2 0 -11.7082
60 3 43.2 4.8 1.6 -11.1232
61 1 44.8 3.2 0 -11.8281
62 3 46.4 4.8 1.6 -11.1662
63 1 48 3.2 0 -11.6792
64 4 49.6 4.8 1.6 -12.9221
65 4 0 6.4 0 -13.2122
66 2 1.6 8 1.6 -9.77518
67 4 3.2 6.4 0 -13.2101
68 3 4.8 8 1.6 -11.1246
69 1 6.4 6.4 0 -11.7316
70 3 8 8 1.6 -11.2002
71 1 9.6 6.4 0 -11.8558
72 3 11.2 8 1.6 -11.2029
73 1 12.8 6.4 0 -11.7657
74 3 14.4 8 1.6 -11.2375
75 4 16 6.4 0 -13.1583
76 4 17.6 8 1.6 -13.226
77 4 19.2 6.4 0 -13.2644
78 4 20.8 8 1.6 -13.1009
79 4 22.4 6.4 0 -13.1261
80 4 24 8 1.6 -12.9139
81 4 25.6 6.4 0 -13.2414
82 4 27.2 8 1.6 -13.1656
83 1 28.8 6.4 0 -11.6152
84 4 30.4 8 1.6 -13.0833
85 4 32 6.4 0 -13.251
86 4 33.6 8 1.6 -13.303
87 4 35.2 6.4 0 -13.2309
88 2 36.8 8 1.6 -9.7366
89 4 38.4 6.4 0 -13.2368
90 3 40 8 1.6 -11.1575
91 1 41.6 6.4 0 -11.7384
92 2 43.2 8 1.6 -9.68323
93 1 44.8 6.4 0 -11.7682
94 3 46.4 8 1.6 -11.2392
95 1 48 6.4 0 -11.7486
96 3 49.6 8 1.6 -11.16
97 1 0 9.6 0 -11.7699
98 3 1.6 11.2 1.6 -11.2004
99 1 3.2 9.6 0 -11.7273
100 3 4.8 11.2 1.6 -10.9887
101 1 6.4 9.6 0 -11.7059
102 4 8 11.2 1.6 -13.0988
103 1 9.6 9.6 0 -11.7801
104 3 11.2 11.2 1.6 -11.0809
105 1 12.8 9.6 0 -11.7853
106 3 14.4 11.2 1.6 -11.1985
107 4 16 9.6 0 -13.247
108 4 17.6 11.2 1.6 -13.2292
109 3 19.2 9.6 0 -11.1289
110 4 20.8 11.2 1.6 -13.1102
111 4 22.4 9.6 0 -13.0784
112 4 24 11.2 1.6 -12.9196
113 4 25.6 9.6 0 -13.2109
114 2 27.2 11.2 1.6 -9.73063
115 4 28.8 9.6 0 -13.2889
116 3 30.4 11.2 1.6 -11.252
117 3 32 9.6 0 -11.2449
118 4 33.6 11.2 1.6 -13.1928
119 3 35.2 9.6 0 -11.093
120 4 36.8 11.2 1.6 -13.1001
121 4 38.4 9.6 0 -13.2751
122 4 40 11.2 1.6 -13.0352
123 1 41.6 9.6 0 -11.7086
124 4 43.2 11.2 1.6 -13.0826
125 1 44.8 9.6 0 -11.7343
126 3 46.4 11.2 1.6 -11.2
127 1 48 9.6 0 -11.828
128 2 49.6 11.2 1.6 -9.71406
129 1 0 12.8 0 -11.8123
130 3 1.6 14.4 1.6 -11.2031
131 1 3.2 12.8 0 -11.6958
132 4 4.8 14.4 1.6 -13.1118
133 1 6.4 12.8 0 -11.6456
134 3 8 14.4 1.6 -11.0713
135 1 9.6 12.8 0 -11.7416
136 4 11.2 14.4 1.6 -13.1015
137 1 12.8 12.8 0 -11.734
138 3 14.4 14.4 1.6 -11.1098
139 4 16 12.8 0 -13.2706
140 3 17.6 14.4 1.6 -11.1568
141 4 19.2 12.8 0 -13.2793
142 3 20.8 14.4 1.6 -11.1952
143 4 22.4 12.8 0 -13.2582
144 2 24 14.4 1.6 -9.75627
145 4 25.6 12.8 0 -13.249
146 4 27.2 14.4 1.6 -13.0799
147 4 28.8 12.8 0 -13.2402
148 3 30.4 14.4 1.6 -11.1902
149 4 32 12.8 0 -13.292
150 3 33.6 14.4 1.6 -11.1486
151 4 35.2 12.8 0 -13.2699
152 3 36.8 14.4 1.6 -11.1774
153 4 38.4 12.8 0 -13.2478
154 2 40 14.4 1.6 -9.82145
155 4 41.6 12.8 0 -13.2711
156 4 43.2 14.4 1.6 -13.1996
157 4 44.8 12.8 0 -13.2978
158 3 46.4 14.4 1.6 -11.2006
159 1 48 12.8 0 -11.7982
160 3 49.6 14.4 1.6 -11.2042
161 1 0 16 0 -11.8123
162 3 1.6 17.6 1.6 -11.1267
163 1 3.2 16 0 -11.7232
164 3 4.8 17.6 1.6 -11.1651
165 4 6.4 16 0 -13.2874
166 3 8 17.6 1.6 -11.2671
167 4 9.6 16 0 -13.3491
168 3 11.2 17.6 1.6 -11.1924
169 1 12.8 16 0 -11.7214
170 2 14.4 17.6 1.6 -9.68876
171 1 16 16 0 -11.699
172 4 17.6 17.6 1.6 -13.1485
173 1 19.2 16 0 -11.7855
174 3 20.8 17.6 1.6 -11.298
175 1 22.4 16 0 -11.8348
176 3 24 17.6 1.6 -11.2158
177 4 25.6 16 0 -13.2332
178 3 27.2 17.6 1.6 -11.1405
179 1 28.8 16 0 -11.6885
180 4 30.4 17.6 1.6 -13.0715
181 4 32 16 0 -13.1981
182 2 33.6 17.6 1.6 -9.63859
183 4 35.2 16 0 -13.2339
184 4 36.8 17.6 1.6 -13.1279
185 2 38.4 16 0 -9.74106
186 4 40 17.6 1.6 -13.1322
187 4 41.6 16 0 -13.3061
188 2 43.2 17.6 1.6 -9.72991
189 4 44.8 16 0 -13.3066
190 3 46.4 17.6 1.6 -11.2742
191 1 48 16 0 -11.828
192 3 49.6 17.6 1.6 -11.2432
193 1 0 19.2 0 -11.7336
194 3 1.6 20.8 1.6 -11.1962
195 1 3.2 19.2 0 -11.7573
196 2 4.8 20.8 1.6 -9.75551
197 1 6.4 19.2 0 -11.8077
198 4 8 20.8 1.6 -13.1228
199 4 9.6 19.2 0 -13.2972
200 2 11.2 20.8 1.6 -9.76178
201 4 12.8 19.2 0 -13.2387
202 3 14.4 20.8 1.6 -11.1065
203 4 16 19.2 0 -13.213
204 3 17.6 20.8 1.6 -11.1107
205 4 19.2 19.2 0 -13.304
206 3 20.8 20.8 1.6 -11.2892
207 4 22.4 19.2 0 -13.3532
208 4 24 20.8 1.6 -13.2303
209 2 25.6 19.2 0 -9.76816
210 4 27.2 20.8 1.6 -13.2862
211 4 28.8 19.2 0 -13.1289
212 2 30.4 20.8 1.6 -9.66233
213 1 32 19.2 0 -11.5992
214 3 33.6 20.8 1.6 -11.1059
215 1 35.2 19.2 0 -11.5951
216 3 36.8 20.8 1.6 -11.1926
217 1 38.4 19.2 0 -11.6499
218 3 40 20.8 1.6 -11.1204
219 4 41.6 19.2 0 -13.2107
220 3 43.2 20.8 1.6 -11.2028
221 4 44.8 19.2 0 -13.3043
222 3 46.4 20.8 1.6 -11.1999
223 1 48 19.2 0 -11.8257
224 3 49.6 20.8 1.6 -11.1632
225 4 0 22.4 0 -13.2695
226 3 1.6 24 1.6 -11.264
227 4 3.2 22.4 0 -13.3003
228 4 4.8 24 1.6 -13.1971
229 4 6.4 22.4 0 -13.1692
230 4 8 24 1.6 -13.0652
231 4 9.6 22.4 0 -13.1955
232 4 11.2 24 1.6 -13.2591
233 4 12.8 22.4 0 -13.1831
234 4 14.4 24 1.6 -13.2313
235 4 16 22.4 0 -13.1645
236 1 17.6 24 1.6 -11.6194
237 4 19.2 22.4 0 -13.1408
238 4 20.8 24 1.6 -13.1617
239 4 22.4 22.4 0 -13.0976
240 1 24 24 1.6 -11.6451
241 4 25.6 22.4 0 -13.09
242 3 27.2 24 1.6 -11.2211
243 4 28.8 22.4 0 -13.2588
244 3 30.4 24 1.6 -11.2461
245 4 32 22.4 0 -13.2127
246 4 33.6 24 1.6 -13.2754
247 4 35.2 22.4 0 -13.2958
248 4 36.8 24 1.6 -13.1209
249 4 38.4 22.4 0 -13.2358
250 4 40 24 1.6 -13.1244
251 1 41.6 22.4 0 -11.6946
252 3 43.2 24 1.6 -11.0759
253 1 44.8 22.4 0 -11.7648
254 3 46.4 24 1.6 -11.2039
255 1 48 22.4 0 -11.8155
256 3 49.6 24 1.6 -11.2747
257 4 0 25.6 0 -13.2968
259 4 3.2 25.6 0 -13.2861
261 1 6.4 25.6 0 -11.6286
263 3 9.6 25.6 0 -11.1377
265 3 12.8 25.6 0 -11.324
267 3 16 25.6 0 -11.1474
269 2 19.2 25.6 0 -9.62832
271 2 22.4 25.6 0 -9.65964
273 4 25.6 25.6 0 -13.133
275 4 28.8 25.6 0 -13.2285
277 1 32 25.6 0 -11.7661
279 1 35.2 25.6 0 -11.6784
281 1 38.4 25.6 0 -11.6716
283 4 41.6 25.6 0 -13.2176
285 4 44.8 25.6 0 -13.2144
287 1 48 25.6 0 -11.6741
258 3 1.6 27.2 1.6 -11.232
289 4 0 28.8 0 -13.1814
260 3 4.8 27.2 1.6 -11.1594
291 1 3.2 28.8 0 -11.6779
262 4 8 27.2 1.6 -13.1894
293 1 6.4 28.8 0 -11.6655
264 4 11.2 27.2 1.6 -13.3164
295 3 9.6 28.8 0 -11.2489
266 4 14.4 27.2 1.6 -13.2166
297 3 12.8 28.8 0 -11.1373
268 1 17.6 27.2 1.6 -11.664
299 4 16 28.8 0 -13.0754
270 4 20.8 27.2 1.6 -13.2477
301 4 19.2 28.8 0 -13.0304
272 4 24 27.2 1.6 -13.2387
303 3 22.4 28.8 0 -11.1879
305 2 25.6 28.8 0 -9.70427
274 4 27.2 27.2 1.6 -13.2291
307 4 28.8 28.8 0 -13.1777
276 2 30.4 27.2 1.6 -9.81972
309 4 32 28.8 0 -13.273
278 3 33.6 27.2 1.6 -11.1115
311 1 35.2 28.8 0 -11.667
280 3 36.8 27.2 1.6 -11.0731
313 1 38.4 28.8 0 -11.7083
282 3 40 27.2 1.6 -11.2028
315 1 41.6 28.8 0 -11.7372
284 3 43.2 27.2 1.6 -11.1982
317 1 44.8 28.8 0 -11.6067
286 4 46.4 27.2 1.6 -13.072
319 1 48 28.8 0 -11.6334
288 3 49.6 27.2 1.6 -11.1936
290 4 1.6 30.4 1.6 -13.1627
321 1 0 32 0 -11.7578
292 3 4.8 30.4 1.6 -11.1532
323 4 3.2 32 0 -13.2419
294 4 8 30.4 1.6 -13.1874
325 4 6.4 32 0 -13.2541
296 4 11.2 30.4 1.6 -13.2228
327 4 9.6 32 0 -13.2956
298 4 14.4 30.4 1.6 -13.2337
329 1 12.8 32 0 -11.6929
300 4 17.6 30.4 1.6 -13.1333
331 2 16 32 0 -9.7819
302 4 20.8 30.4 1.6 -13.2992
333 4 19.2 32 0 -13.2044
304 4 24 30.4 1.6 -13.2687
335 3 22.4 32 0 -11.3132
337 4 25.6 32 0 -13.0964
306 1 27.2 30.4 1.6 -11.5558
339 4 28.8 32 0 -13.1813
308 4 30.4 30.4 1.6 -13.2388
341 4 32 32 0 -13.3015
310 2 33.6 30.4 1.6 -9.72802
343 1 35.2 32 0 -11.7355
312 4 36.8 30.4 1.6 -13.1023
345 1 38.4 32 0 -11.8239
314 3 40 30.4 1.6 -11.1588
347 4 41.6 32 0 -13.1817
316 3 43.2 30.4 1.6 -11.0301
349 1 44.8 32 0 -11.6546
318 4 46.4 30.4 1.6 -13.1932
351 1 48 32 0 -11.7699
320 3 49.6 30.4 1.6 -11.2324
322 2 1.6 33.6 1.6 -9.76643
353 1 0 35.2 0 -11.7846
324 3 4.8 33.6 1.6 -11.2516
355 4 3.2 35.2 0 -13.3693
326 4 8 33.6 1.6 -13.1117
357 4 6.4 35.2 0 -13.3054
328 3 11.2 33.6 1.6 -11.1477
359 4 9.6 35.2 0 -13.2558
330 3 14.4 33.6 1.6 -11.2188
361 4 12.8 35.2 0 -13.2966
332 4 17.6 33.6 1.6 -13.2071
363 4 16 35.2 0 -13.2589
334 4 20.8 33.6 1.6 -13.2465
365 4 19.2 35.2 0 -13.2346
336 4 24 33.6 1.6 -13.2573
367 4 22.4 35.2 0 -13.3004
369 4 25.6 35.2 0 -13.1959
338 4 27.2 33.6 1.6 -13.145
371 4 28.8 35.2 0 -13.3032
340 3 30.4 33.6 1.6 -11.1415
373 1 32 35.2 0 -11.7254
342 3 33.6 33.6 1.6 -11.3033
375 4 35.2 35.2 0 -13.312
344 3 36.8 33.6 1.6 -11.1535
377 1 38.4 35.2 0 -11.8312
346 3 40 33.6 1.6 -11.2325
379 1 41.6 35.2 0 -11.7111
348 4 43.2 33.6 1.6 -13.1672
381 4 44.8 35.2 0 -13.1669
350 3 46.4 33.6 1.6 -11.0635
383 1 48 35.2 0 -11.8059
352 3 49.6 33.6 1.6 -11.2699
354 4 1.6 36.8 1.6 -13.2799
385 1 0 38.4 0 -11.7205
356 3 4.8 36.8 1.6 -11.1839
387 4 3.2 38.4 0 -13.2466
358 4 8 36.8 1.6 -13.1628
389 4 6.4 38.4 0 -13.2708
360 3 11.2 36.8 1.6 -11.2324
391 4 9.6 38.4 0 -13.2838
362 3 14.4 36.8 1.6 -11.2742
393 1 12.8 38.4 0 -11.7181
364 3 17.6 36.8 1.6 -11.1565
395 4 16 38.4 0 -13.1283
366 3 20.8 36.8 1.6 -11.1925
397 4 19.2 38.4 0 -13.1677
368 3 24 36.8 1.6 -11.1501
399 1 22.4 38.4 0 -11.6418
401 1 25.6 38.4 0 -11.7202
370 3 27.2 36.8 1.6 -11.2529
403 4 28.8 38.4 0 -13.294
372 4 30.4 36.8 1.6 -13.2161
405 4 32 38.4 0 -13.1983
374 3 33.6 36.8 1.6 -11.1339
407 2 35.2 38.4 0 -9.75919
376 4 36.8 36.8 1.6 -13.2522
409 4 38.4 38.4 0 -13.2368
378 3 40 36.8 1.6 -11.109
411 1 41.6 38.4 0 -11.6626
380 4 43.2 36.8 1.6 -13.215
413 4 44.8 38.4 0 -13.2707
382 4 46.4 36.8 1.6 -13.2714
415 4 48 38.4 0 -13.2029
384 3 49.6 36.8 1.6 -11.1484
386 3 1.6 40 1.6 -11.0619
417 1 0 41.6 0 -11.7203
388 4 4.8 40 1.6 -13.2476
419 4 3.2 41.6 0 -13.2487
390 3 8 40 1.6 -11.2092
421 4 6.4 41.6 0 -13.2927
392 3 11.2 40 1.6 -11.2966
423 4 9.6 41.6 0 -13.3977
394 3 14.4 40 1.6 -11.1589
425 4 12.8 41.6 0 -13.3273
396 4 17.6 40 1.6 -13.1708
427 4 16 41.6 0 -13.2013
398 3 20.8 40 1.6 -11.1916
429 4 19.2 41.6 0 -13.2157
400 2 24 40 1.6 -9.72884
431 1 22.4 41.6 0 -11.7091
433 1 25.6 41.6 0 -11.6786
402 3 27.2 40 1.6 -11.1828
435 4 28.8 41.6 0 -13.1547
404 4 30.4 40 1.6 -13.1468
437 4 32 41.6 0 -13.1784
406 4 33.6 40 1.6 -13.2952
439 2 35.2 41.6 0 -9.73701
408 1 36.8 40 1.6 -11.6368
441 4 38.4 41.6 0 -13.2659
410 4 40 40 1.6 -13.161
443 1 41.6 41.6 0 -11.7091
412 4 43.2 40 1.6 -13.1685
445 3 44.8 41.6 0 -11.1362
414 4 46.4 40 1.6 -13.2352
447 4 48 41.6 0 -13.2427
416 4 49.6 40 1.6 -13.1714
418 4 1.6 43.2 1.6 -13.245
449 1 0 44.8 0 -11.7454
420 3 4.8 43.2 1.6 -11.189
451 4 3.2 44.8 0 -13.2239
422 3 8 43.2 1.6 -11.232
453 1 6.4 44.8 0 -11.8169
424 4 11.2 43.2 1.6 -13.1963
455 1 9.6 44.8 0 -11.8042
426 2 14.4 43.2 1.6 -9.76337
457 4 12.8 44.8 0 -13.2428
428 4 17.6 43.2 1.6 -13.2003
459 4 16 44.8 0 -13.2738
430 3 20.8 43.2 1.6 -11.2643
461 1 19.2 44.8 0 -11.8318
432 3 24 43.2 1.6 -11.1894
463 1 22.4 44.8 0 -11.7995
465 4 25.6 44.8 0 -13.1685
434 4 27.2 43.2 1.6 -13.2314
467 2 28.8 44.8 0 -9.73721
436 4 30.4 43.2 1.6 -13.2002
469 3 32 44.8 0 -11.1115
438 4 33.6 43.2 1.6 -13.3022
471 4 35.2 44.8 0 -13.2842
440 4 36.8 43.2 1.6 -13.2853
473 3 38.4 44.8 0 -11.1159
442 4 40 43.2 1.6 -13.3068
475 4 41.6 44.8 0 -13.2593
444 3 43.2 43.2 1.6 -11.2075
477 4 44.8 44.8 0 -13.2044
446 2 46.4 43.2 1.6 -9.82604
479 1 48 44.8 0 -11.7272
448 3 49.6 43.2 1.6 -11.1482
450 2 1.6 46.4 1.6 -9.64005
481 4 0 48 0 -13.2591
452 2 4.8 46.4 1.6 -9.71835
483 1 3.2 48 0 -11.6857
454 3 8 46.4 1.6 -11.1663
485 1 6.4 48 0 -11.7676
456 3 11.2 46.4 1.6 -11.1613
487 1 9.6 48 0 -11.7535
458 2 14.4 46.4 1.6 -9.73313
489 1 12.8 48 0 -11.7736
460 3 17.6 46.4 1.6 -11.2344
491 4 16 48 0 -13.2578
462 3 20.8 46.4 1.6 -11.3074
493 1 19.2 48 0 -11.7655
464 2 24 46.4 1.6 -9.73792
495 4 22.4 48 0 -13.1456
497 4 25.6 48 0 -13.1002
466 4 27.2 46.4 1.6 -13.1621
499 4 28.8 48 0 -13.1369
468 1 30.4 46.4 1.6 -11.7407
501 3 32 48 0 -11.1949
470 1 33.6 46.4 1.6 -11.7895
503 3 35.2 48 0 -11.102
472 4 36.8 46.4 1.6 -13.2992
505 4 38.4 48 0 -13.2043
474 4 40 46.4 1.6 -13.2275
507 4 41.6 48 0 -13.1836
476 4 43.2 46.4 1.6 -13.2099
509 4 44.8 48 0 -13.1605
478 4 46.4 46.4 1.6 -13.0827
511 1 48 48 0 -11.7182
480 3 49.6 46.4 1.6 -11.2981
482 4 1.6 49.6 1.6 -13.1582
484 3 4.8 49.6 1.6 -11.1632
486 3 8 49.6 1.6 -11.1261
488 3 11.2 49.6 1.6 -11.2432
490 3 14.4 49.6 1.6 -11.203
492 3 17.6 49.6 1.6 -11.2399
494 3 20.8 49.6 1.6 -11.2382
496 2 24 49.6 1.6 -9.70775
498 2 27.2 49.6 1.6 -9.79122
500 4 30.4 49.6 1.6 -13.1963
502 4 33.6 49.6 1.6 -13.2356
504 4 36.8 49.6 1.6 -13.2737
506 4 40 49.6 1.6 -13.1682
508 3 43.2 49.6 1.6 -11.2501
510 4 46.4 49.6 1.6 -13.1213
512 3 49.6 49.6 1.6 -11.1485
513 1 0 0 3.2 -11.7318
514 3 1.6 1.6 4.8 -11.1609
515 1 3.2 0 3.2 -11.7373
516 2 4.8 1.6 4.8 -9.7514
517 1 6.4 0 3.2 -11.7336
518 4 8 1.6 4.8 -13.0754
519 1 9.6 0 3.2 -11.7664
520 3 11.2 1.6 4.8 -11.0297
521 1 12.8 0 3.2 -11.7988
522 2 14.4 1.6 4.8 -9.65188
523 1 16 0 3.2 -11.7506
524 2 17.6 1.6 4.8 -9.71541
525 1 19.2 0 3.2 -11.8094
526 2 20.8 1.6 4.8 -9.69166
527 4 22.4 0 3.2 -13.1869
528 2 24 1.6 4.8 -9.6417
529 4 25.6 0 3.2 -13.2326
530 1 27.2 1.6 4.8 -11.5496
531 2 28.8 0 3.2 -9.6982
532 4 30.4 1.6 4.8 -13.0972
533 4 32 0 3.2 -13.1696
534 2 33.6 1.6 4.8 -9.70935
535 2 35.2 0 3.2 -9.70447
536 4 36.8 1.6 4.8 -13.2291
537 4 38.4 0 3.2 -13.2154
538 3 40 1.6 4.8 -11.0756
539 4 41.6 0 3.2 -13.2973
540 3 43.2 1.6 4.8 -11.1979
541 4 44.8 0 3.2 -13.242
542 4 46.4 1.6 4.8 -13.1553
543 1 48 0 3.2 -11.6805
544 3 49.6 1.6 4.8 -11.0311
545 1 0 3.2 3.2 -11.6659
546 3 1.6 4.8 4.8 -11.1992
547 1 3.2 3.2 3.2 -11.8148
548 3 4.8 4.8 4.8 -11.1533
549 4 6.4 3.2 3.2 -13.2489
550 4 8 4.8 4.8 -13.1117
551 1 9.6 3.2 3.2 -11.7034
552 4 11.2 4.8 4.8 -12.9357
553 4 12.8 3.2 3.2 -13.1874
554 4 14.4 4.8 4.8 -13.0172
555 1 16 3.2 3.2 -11.7051
556 3 17.6 4.8 4.8 -11.1912
557 1 19.2 3.2 3.2 -11.7996
558 3 20.8 4.8 4.8 -11.2395
559 1 22.4 3.2 3.2 -11.7131
560 3 24 4.8 4.8 -11.1595
561 4 25.6 3.2 3.2 -13.1504
562 4 27.2 4.8 4.8 -13.1651
563 1 28.8 3.2 3.2 -11.579
564 2 30.4 4.8 4.8 -9.73053
565 4 32 3.2 3.2 -13.219
566 3 33.6 4.8 4.8 -11.3223
567 1 35.2 3.2 3.2 -11.7457
568 3 36.8 4.8 4.8 -11.1121
569 1 38.4 3.2 3.2 -11.677
570 3 40 4.8 4.8 -11.2065
571 1 41.6 3.2 3.2 -11.7639
572 3 43.2 4.8 4.8 -11.2426
573 1 44.8 3.2 3.2 -11.7978
574 3 46.4 4.8 4.8 -11.1226
575 1 48 3.2 3.2 -11.6459
576 4 49.6 4.8 4.8 -13.0604
577 1 0 6.4 3.2 -11.7022
578 3 1.6 8 4.8 -11.2349
579 1 3.2 6.4 3.2 -11.7994
580 2 4.8 8 4.8 -9.74815
581 1 6.4 6.4 3.2 -11.8067
582 3 8 8 4.8 -11.034
583 4 9.6 6.4 3.2 -13.1836
584 4 11.2 8 4.8 -13.0681
585 1 12.8 6.4 3.2 -11.7035
586 3 14.4 8 4.8 -11.1577
587 4 16 6.4 3.2 -13.2823
588 3 17.6 8 4.8 -11.237
589 4 19.2 6.4 3.2 -13.2725
590 2 20.8 8 4.8 -9.69493
591 1 22.4 6.4 3.2 -11.6768
592 3 24 8 4.8 -11.1164
593 4 25.6 6.4 3.2 -13.2236
594 3 27.2 8 4.8 -11.1432
595 4 28.8 6.4 3.2 -13.1402
596 4 30.4 8 4.8 -13.2043
597 4 32 6.4 3.2 -13.2478
598 3 33.6 8 4.8 -11.1807
599 4 35.2 6.4 3.2 -13.2921
600 3 36.8 8 4.8 -11.1968
601 1 38.4 6.4 3.2 -11.7543
602 3 40 8 4.8 -11.1622
603 1 41.6 6.4 3.2 -11.8
604 3 43.2 8 4.8 -11.2408
605 1 44.8 6.4 3.2 -11.8122
606 3 46.4 8 4.8 -11.2773
607 1 48 6.4 3.2 -11.7227
608 3 49.6 8 4.8 -11.0777
609 1 0 9.6 3.2 -11.7541
610 3 1.6 11.2 4.8 -11.1164
611 1 3.2 9.6 3.2 -11.7542
612 4 4.8 11.2 4.8 -13.1098
613 1 6.4 9.6 3.2 -11.6903
614 3 8 11.2 4.8 -11.0821
615 1 9.6 9.6 3.2 -11.7347
616 3 11.2 11.2 4.8 -11.1656
617 1 12.8 9.6 3.2 -11.7975
618 3 14.4 11.2 4.8 -11.2367
619 1 16 9.6 3.2 -11.7853
620 3 17.6 11.2 4.8 -11.1635
621 4 19.2 9.6 3.2 -13.2227
622 3 20.8 11.2 4.8 -11.034
623 1 22.4 9.6 3.2 -11.531
624 4 24 11.2 4.8 -13.0582
625 1 25.6 9.6 3.2 -11.6228
626 3 27.2 11.2 4.8 -11.1894
627 4 28.8 9.6 3.2 -13.2652
628 3 30.4 11.2 4.8 -11.1851
629 4 32 9.6 3.2 -13.2133
630 4 33.6 11.2 4.8 -13.0421
631 1 35.2 9.6 3.2 -11.6503
632 2 36.8 11.2 4.8 -9.63228
633 1 38.4 9.6 3.2 -11.6381
634 4 40 11.2 4.8 -13.0729
635 4 41.6 9.6 3.2 -13.1863
636 3 43.2 11.2 4.8 -11.1626
637 1 44.8 9.6 3.2 -11.7794
638 3 46.4 11.2 4.8 -11.2026
639 4 48 9.6 3.2 -13.2818
640 4 49.6 11.2 4.8 -13.1106
641 1 0 12.8 3.2 -11.7594
642 3 1.6 14.4 4.8 -11.201
643 4 3.2 12.8 3.2 -13.2656
644 3 4.8 14.4 4.8 -11.1232
645 1 6.4 12.8 3.2 -11.6957
646 3 8 14.4 4.8 -11.1651
647 1 9.6 12.8 3.2 -11.6907
648 2 11.2 14.4 4.8 -9.58941
649 1 12.8 12.8 3.2 -11.703
650 4 14.4 14.4 4.8 -13.1023
651 4 16 12.8 3.2 -13.2855
652 3 17.6 14.4 4.8 -11.1229
653 1 19.2 12.8 3.2 -11.7407
654 2 20.8 14.4 4.8 -9.76963
655 1 22.4 12.8 3.2 -11.6317
656 3 24 14.4 4.8 -11.0389
657 1 25.6 12.8 3.2 -11.6067
658 3 27.2 14.4 4.8 -11.1615
659 1 28.8 12.8 3.2 -11.7933
660 3 30.4 14.4 4.8 -11.2331
661 1 32 12.8 3.2 -11.7263
662 4 33.6 14.4 4.8 -13.0428
663 4 35.2 12.8 3.2 -13.0943
664 2 36.8 14.4 4.8 -9.7876
665 1 38.4 12.8 3.2 -11.6315
666 3 40 14.4 4.8 -11.1921
667 4 41.6 12.8 3.2 -13.172
668 3 43.2 14.4 4.8 -11.2382
669 1 44.8 12.8 3.2 -11.7528
670 3 46.4 14.4 4.8 -11.2435
671 1 48 12.8 3.2 -11.7665
672 3 49.6 14.4 4.8 -11.0809
673 1 0 16 3.2 -11.7803
674 4 1.6 17.6 4.8 -13.0517
675 1 3.2 16 3.2 -11.7347
676 3 4.8 17.6 4.8 -11.1651
677 1 6.4 16 3.2 -11.7977
678 3 8 17.6 4.8 -11.2392
679 1 9.6 16 3.2 -11.7795
680 3 11.2 17.6 4.8 -11.2053
681 1 12.8 16 3.2 -11.6625
682 3 14.4 17.6 4.8 -11.0387
683 1 16 16 3.2 -11.7032
684 3 17.6 17.6 4.8 -11.1214
685 1 19.2 16 3.2 -11.7651
686 3 20.8 17.6 4.8 -11.2659
687 4 22.4 16 3.2 -13.2871
688 4 24 17.6 4.8 -13.2043
689 1 25.6 16 3.2 -11.7392
690 3 27.2 17.6 4.8 -11.2669
691 1 28.8 16 3.2 -11.736
692 3 30.4 17.6 4.8 -11.1098
693 1 32 16 3.2 -11.671
694 2 33.6 17.6 4.8 -9.66448
695 1 35.2 16 3.2 -11.7164
696 3 36.8 17.6 4.8 -11.1991
697 4 38.4 16 3.2 -13.28
698 3 40 17.6 4.8 -11.1977
699 4 41.6 16 3.2 -13.2699
700 3 43.2 17.6 4.8 -11.2414
701 1 44.8 16 3.2 -11.7853
702 3 46.4 17.6 4.8 -11.1235
703 1 48 16 3.2 -11.8416
704 3 49.6 17.6 4.8 -11.0366
705 1 0 19.2 3.2 -11.6866
706 2 1.6 20.8 4.8 -9.6474
707 1 3.2 19.2 3.2 -11.7354
708 3 4.8 20.8 4.8 -11.199
709 1 6.4 19.2 3.2 -11.7356
710 2 8 20.8 4.8 -9.74863
711 1 9.6 19.2 3.2 -11.7543
712 3 11.2 20.8 4.8 -11.1135
713 1 12.8 19.2 3.2 -11.7636
714 4 14.4 20.8 4.8 -13.163
715 1 16 19.2 3.2 -11.692
716 2 17.6 20.8 4.8 -9.75705
717 1 19.2 19.2 3.2 -11.8121
718 3 20.8 20.8 4.8 -11.2152
719 4 22.4 19.2 3.2 -13.3179
720 4 24 20.8 4.8 -13.1772
721 4 25.6 19.2 3.2 -13.3066
722 2 27.2 20.8 4.8 -9.73525
723 1 28.8 19.2 3.2 -11.6733
724 4 30.4 20.8 4.8 -13.0746
725 1 32 19.2 3.2 -11.5968
726 4 33.6 20.8 4.8 -13.1056
727 4 35.2 19.2 3.2 -13.2159
728 3 36.8 20.8 4.8 -11.1604
729 1 38.4 19.2 3.2 -11.7203
730 2 40 20.8 4.8 -9.73575
731 1 41.6 19.2 3.2 -11.758
732 3 43.2 20.8 4.8 -11.0379
733 1 44.8 19.2 3.2 -11.7654
734 4 46.4 20.8 4.8 -13.0642
735 1 48 19.2 3.2 -11.7106
736 4 49.6 20.8 4.8 -13.018
737 1 0 22.4 3.2 -11.7741
738 3 1.6 24 4.8 -11.2737
739 4 3.2 22.4 3.2 -13.3095
740 3 4.8 24 4.8 -11.2384
741 4 6.4 22.4 3.2 -13.2035
742 3 8 24 4.8 -11.1583
743 4 9.6 22.4 3.2 -13.2295
744 3 11.2 24 4.8 -11.2262
745 4 12.8 22.4 3.2 -13.234
746 2 14.4 24 4.8 -9.70908
747 1 16 22.4 3.2 -11.6141
748 4 17.6 24 4.8 -13.1878
749 4 19.2 22.4 3.2 -13.2417
750 4 20.8 24 4.8 -13.241
751 4 22.4 22.4 3.2 -13.2258
752 4 24 24 4.8 -13.1646
753 3 25.6 22.4 3.2 -11.1987
754 4 27.2 24 4.8 -13.3482
755 4 28.8 22.4 3.2 -13.3163
756 3 30.4 24 4.8 -11.3158
757 4 32 22.4 3.2 -13.2931
758 3 33.6 24 4.8 -11.1743
759 4 35.2 22.4 3.2 -13.2752
760 2 36.8 24 4.8 -9.79224
761 1 38.4 22.4 3.2 -11.7152
762 3 40 24 4.8 -11.0689
763 1 41.6 22.4 3.2 -11.7009
764 4 43.2 24 4.8 -13.0988
765 1 44.8 22.4 3.2 -11.7246
766 3 46.4 24 4.8 -11.0338
767 1 48 22.4 3.2 -11.7324
768 3 49.6 24 4.8 -11.1618
769 1 0 25.6 3.2 -11.8698
771 1 3.2 25.6 3.2 -11.8147
773 1 6.4 25.6 3.2 -11.6421
775 4 9.6 25.6 3.2 -13.2436
777 4 12.8 25.6 3.2 -13.1894
779 2 16 25.6 3.2 -9.70979
781 3 19.2 25.6 3.2 -11.225
783 2 22.4 25.6 3.2 -9.73781
785 3 25.6 25.6 3.2 -11.218
787 4 28.8 25.6 3.2 -13.311
789 4 32 25.6 3.2 -13.3285
791 4 35.2 25.6 3.2 -13.2761
793 4 38.4 25.6 3.2 -13.2606
795 1 41.6 25.6 3.2 -11.7575
797 1 44.8 25.6 3.2 -11.7511
799 1 48 25.6 3.2 -11.7974
770 3 1.6 27.2 4.8 -11.2764
801 1 0 28.8 3.2 -11.8276
772 3 4.8 27.2 4.8 -11.2387
803 1 3.2 28.8 3.2 -11.8102
774 4 8 27.2 4.8 -13.1961
805 4 6.4 28.8 3.2 -13.2534
776 4 11.2 27.2 4.8 -13.1669
807 3 9.6 28.8 3.2 -11.1287
778 4 14.4 27.2 4.8 -13.1854
809 4 12.8 28.8 3.2 -13.2125
780 4 17.6 27.2 4.8 -13.2309
811 4 16 28.8 3.2 -13.1384
782 1 20.8 27.2 4.8 -11.7817
813 3 19.2 28.8 3.2 -11.1089
784 1 24 27.2 4.8 -11.6909
815 4 22.4 28.8 3.2 -13.2727
817 3 25.6 28.8 3.2 -11.1168
786 1 27.2 27.2 4.8 -11.6766
819 4 28.8 28.8 3.2 -13.15
788 2 30.4 27.2 4.8 -9.82676
821 4 32 28.8 3.2 -13.2947
790 4 33.6 27.2 4.8 -13.2776
823 1 35.2 28.8 3.2 -11.7209
792 3 36.8 27.2 4.8 -11.189
825 1 38.4 28.8 3.2 -11.7583
794 3 40 27.2 4.8 -11.2687
827 1 41.6 28.8 3.2 -11.7483
796 3 43.2 27.2 4.8 -11.1623
829 4 44.8 28.8 3.2 -13.2567
798 3 46.4 27.2 4.8 -11.2392
831 4 48 28.8 3.2 -13.3016
800 3 49.6 27.2 4.8 -11.2362
802 3 1.6 30.4 4.8 -11.1988
833 4 0 32 3.2 -13.2425
804 3 4.8 30.4 4.8 -11.1486
835 4 3.2 32 3.2 -13.2746
806 4 8 30.4 4.8 -13.1092
837 1 6.4 32 3.2 -11.6309
808 4 11.2 30.4 4.8 -13.1817
839 4 9.6 32 3.2 -13.0988
810 2 14.4 30.4 4.8 -9.73246
841 1 12.8 32 3.2 -11.6074
812 1 17.6 30.4 4.8 -11.7072
843 3 16 32 3.2 -11.1254
814 4 20.8 30.4 4.8 -13.2336
845 4 19.2 32 3.2 -13.1739
816 1 24 30.4 4.8 -11.7407
847 3 22.4 32 3.2 -11.1331
849 2 25.6 32 3.2 -9.6625
818 1 27.2 30.4 4.8 -11.6809
851 4 28.8 32 3.2 -13.154
820 3 30.4 30.4 4.8 -11.2282
853 4 32 32 3.2 -13.3324
822 3 33.6 30.4 4.8 -11.2273
855 1 35.2 32 3.2 -11.7412
824 3 36.8 30.4 4.8 -11.0383
857 4 38.4 32 3.2 -13.1623
826 4 40 30.4 4.8 -13.0249
859 1 41.6 32 3.2 -11.6675
828 4 43.2 30.4 4.8 -13.1936
861 4 44.8 32 3.2 -13.2779
830 3 46.4 30.4 4.8 -11.1882
863 4 48 32 3.2 -13.3004
832 3 49.6 30.4 4.8 -11.2308
834 4 1.6 33.6 4.8 -13.1198
865 4 0 35.2 3.2 -13.2683
836 4 4.8 33.6 4.8 -13.1645
867 4 3.2 35.2 3.2 -13.2731
838 2 8 33.6 4.8 -9.62796
869 1 6.4 35.2 3.2 -11.6697
840 4 11.2 33.6 4.8 -13.0816
871 1 9.6 35.2 3.2 -11.6931
842 4 14.4 33.6 4.8 -13.184
873 1 12.8 35.2 3.2 -11.7432
844 4 17.6 33.6 4.8 -13.1293
875 1 16 35.2 3.2 -11.7496
846 4 20.8 33.6 4.8 -13.0813
877 1 19.2 35.2 3.2 -11.6018
848 4 24 33.6 4.8 -13.0946
879 4 22.4 35.2 3.2 -13.2037
881 4 25.6 35.2 3.2 -13.1402
850 1 27.2 33.6 4.8 -11.6043
883 4 28.8 35.2 3.2 -13.1711
852 4 30.4 33.6 4.8 -13.3071
885 1 32 35.2 3.2 -11.7076
854 3 33.6 33.6 4.8 -11.1069
887 4 35.2 35.2 3.2 -13.2399
856 4 36.8 33.6 4.8 -13.1997
889 4 38.4 35.2 3.2 -13.2777
858 4 40 33.6 4.8 -13.0673
891 4 41.6 35.2 3.2 -13.2135
860 3 43.2 33.6 4.8 -11.1023
893 4 44.8 35.2 3.2 -13.3013
862 4 46.4 33.6 4.8 -13.1903
895 4 48 35.2 3.2 -13.1892
864 4 49.6 33.6 4.8 -13.1174
866 3 1.6 36.8 4.8 -11.1895
897 4 0 38.4 3.2 -13.2492
868 3 4.8 36.8 4.8 -11.2332
899 1 3.2 38.4 3.2 -11.7939
870 3 8 36.8 4.8 -11.1886
901 1 6.4 38.4 3.2 -11.7299
872 3 11.2 36.8 4.8 -11.1975
903 4 9.6 38.4 3.2 -13.279
874 3 14.4 36.8 4.8 -11.1631
905 1 12.8 38.4 3.2 -11.8277
876 3 17.6 36.8 4.8 -11.1613
907 1 16 38.4 3.2 -11.7974
878 4 20.8 36.8 4.8 -13.1057
909 1 19.2 38.4 3.2 -11.7501
880 4 24 36.8 4.8 -13.058
911 1 22.4 38.4 3.2 -11.6979
913 4 25.6 38.4 3.2 -13.1902
882 4 27.2 36.8 4.8 -13.1643
915 4 28.8 38.4 3.2 -13.2258
884 4 30.4 36.8 4.8 -13.183
917 2 32 38.4 3.2 -9.73589
886 4 33.6 36.8 4.8 -13.2311
919 4 35.2 38.4 3.2 -13.1733
888 4 36.8 36.8 4.8 -13.0725
921 4 38.4 38.4 3.2 -13.147
890 4 40 36.8 4.8 -13.2319
923 4 41.6 38.4 3.2 -13.233
892 3 43.2 36.8 4.8 -11.2062
925 3 44.8 38.4 3.2 -11.1474
894 4 46.4 36.8 4.8 -13.1468
927 4 48 38.4 3.2 -13.2351
896 2 49.6 36.8 4.8 -9.73111
898 3 1.6 40 4.8 -11.2343
929 4 0 41.6 3.2 -13.2056
900 3 4.8 40 4.8 -11.1582
931 4 3.2 41.6 3.2 -13.2845
902 4 8 40 4.8 -13.1106
933 1 6.4 41.6 3.2 -11.741
904 2 11.2 40 4.8 -9.68827
935 4 9.6 41.6 3.2 -13.1618
906 3 14.4 40 4.8 -11.2054
937 1 12.8 41.6 3.2 -11.7117
908 3 17.6 40 4.8 -11.2034
939 1 16 41.6 3.2 -11.7233
910 3 20.8 40 4.8 -11.1544
941 4 19.2 41.6 3.2 -13.278
912 4 24 40 4.8 -13.1482
943 4 22.4 41.6 3.2 -13.2661
945 4 25.6 41.6 3.2 -13.2437
914 4 27.2 40 4.8 -13.2491
947 4 28.8 41.6 3.2 -13.1909
916 1 30.4 40 4.8 -11.6665
949 2 32 41.6 3.2 -9.69873
918 4 33.6 40 4.8 -13.2149
951 3 35.2 41.6 3.2 -11.2642
920 4 36.8 40 4.8 -13.1786
953 3 38.4 41.6 3.2 -11.1031
922 4 40 40 4.8 -13.1543
955 2 41.6 41.6 3.2 -9.73527
924 4 43.2 40 4.8 -13.2564
957 1 44.8 41.6 3.2 -11.7643
926 3 46.4 40 4.8 -11.1419
959 4 48 41.6 3.2 -13.2046
928 4 49.6 40 4.8 -13.0346
930 4 1.6 43.2 4.8 -13.0877
961 4 0 44.8 3.2 -13.2256
932 3 4.8 43.2 4.8 -11.0271
963 4 3.2 44.8 3.2 -13.128
934 2 8 43.2 4.8 -9.62422
965 1 6.4 44.8 3.2 -11.704
936 4 11.2 43.2 4.8 -13.0701
967 1 9.6 44.8 3.2 -11.6939
938 3 14.4 43.2 4.8 -11.121
969 4 12.8 44.8 3.2 -13.1867
940 3 17.6 43.2 4.8 -11.1216
971 1 16 44.8 3.2 -11.7105
942 4 20.8 43.2 4.8 -13.2406
973 4 19.2 44.8 3.2 -13.3178
944 4 24 43.2 4.8 -13.1831
975 4 22.4 44.8 3.2 -13.2291
977 4 25.6 44.8 3.2 -13.2305
946 4 27.2 43.2 4.8 -13.274
979 3 28.8 44.8 3.2 -11.1563
948 1 30.4 43.2 4.8 -11.6502
981 3 32 44.8 3.2 -11.1551
950 1 33.6 43.2 4.8 -11.7331
983 3 35.2 44.8 3.2 -11.1566
952 1 36.8 43.2 4.8 -11.7589
985 4 38.4 44.8 3.2 -13.2412
954 4 40 43.2 4.8 -13.2277
987 4 41.6 44.8 3.2 -13.2554
956 4 43.2 43.2 4.8 -13.2696
989 4 44.8 44.8 3.2 -13.1946
958 3 46.4 43.2 4.8 -11.0628
991 4 48 44.8 3.2 -13.2985
960 4 49.6 43.2 4.8 -13.2069
962 4 1.6 46.4 4.8 -13.109
993 4 0 48 3.2 -13.295
964 4 4.8 46.4 4.8 -12.9735
995 1 3.2 48 3.2 -11.6334
966 2 8 46.4 4.8 -9.61496
997 1 6.4 48 3.2 -11.6857
968 3 11.2 46.4 4.8 -11.1214
999 1 9.6 48 3.2 -11.7808
970 4 14.4 46.4 4.8 -13.1476
1001 1 12.8 48 3.2 -11.7662
972 3 17.6 46.4 4.8 -11.1598
1003 1 16 48 3.2 -11.7617
974 3 20.8 46.4 4.8 -11.113
1005 1 19.2 48 3.2 -11.8552
976 4 24 46.4 4.8 -13.1728
1007 1 22.4 48 3.2 -11.7427
1009 4 25.6 48 3.2 -13.1505
978 1 27.2 46.4 4.8 -11.7567
1011 2 28.8 48 3.2 -9.76204
980 1 30.4 46.4 4.8 -11.738
1013 2 32 48 3.2 -9.75777
982 1 33.6 46.4 4.8 -11.738
1015 2 35.2 48 3.2 -9.81203
984 1 36.8 46.4 4.8 -11.7475
1017 3 38.4 48 3.2 -11.14
986 4 40 46.4 4.8 -13.2643
1019 3 41.6 48 3.2 -11.2267
988 4 43.2 46.4 4.8 -13.2606
1021 4 44.8 48 3.2 -13.2476
990 2 46.4 46.4 4.8 -9.73634
1023 4 48 48 3.2 -13.2268
992 3 49.6 46.4 4.8 -11.22
994 3 1.6 49.6 4.8 -11.0788
996 3 4.8 49.6 4.8 -11.0849
998 2 8 49.6 4.8 -9.68766
1000 3 11.2 49.6 4.8 -11.2414
1002 3 14.4 49.6 4.8 -11.1261
1004 3 17.6 49.6 4.8 -11.1654
1006 3 20.8 49.6 4.8 -11.1628
1008 4 24 49.6 4.8 -13.1913
1010 4 27.2 49.6 4.8 -13.2252
1012 4 30.4 49.6 4.8 -13.2267
1014 4 33.6 49.6 4.8 -13.2388
1016 1 36.8 49.6 4.8 -11.6599
1018 4 40 49.6 4.8 -13.2266
1020 2 43.2 49.6 4.8 -9.84308
1022 2 46.4 49.6 4.8 -9.63047
1024 2 49.6 49.6 4.8 -9.74792
1025 1 0 0 6.4 -11.6561
1026 4 1.6 1.6 8 -13.0649
1027 1 3.2 0 6.4 -11.7062
1028 2 4.8 1.6 8 -9.69376
1029 1 6.4 0 6.4 -11.7253
1030 3 8 1.6 8 -11.1226
1031 4 9.6 0 6.4 -13.2331
1032 4 11.2 1.6 8 -13.1963
1033 1 12.8 0 6.4 -11.771
1034 3 14.4 1.6 8 -11.1216
1035 1 16 0 6.4 -11.7527
1036 3 17.6 1.6 8 -11.1162
1037 1 19.2 0 6.4 -11.6986
1038 4 20.8 1.6 8 -13.1078
1039 1 22.4 0 6.4 -11.5941
1040 4 24 1.6 8 -13.0607
1041 2 25.6 0 6.4 -9.70938
1042 4 27.2 1.6 8 -13.106
1043 4 28.8 0 6.4 -13.1834
1044 3 30.4 1.6 8 -11.1288
1045 4 32 0 6.4 -13.1896
1046 4 33.6 1.6 8 -13.2864
1047 4 35.2 0 6.4 -13.2568
1048 3 36.8 1.6 8 -11.1853
1049 4 38.4 0 6.4 -13.1335
1050 2 40 1.6 8 -9.78983
1051 1 41.6 0 6.4 -11.7282
1052 3 43.2 1.6 8 -11.2377
1053 1 44.8 0 6.4 -11.7436
1054 3 46.4 1.6 8 -11.1518
1055 1 48 0 6.4 -11.6288
1056 2 49.6 1.6 8 -9.72389
1057 4 0 3.2 6.4 -13.211
1058 2 1.6 4.8 8 -9.76393
1059 4 3.2 3.2 6.4 -13.2435
1060 4 4.8 4.8 8 -13.2778
1061 4 6.4 3.2 6.4 -13.2167
1062 3 8 4.8 8 -11.0758
1063 1 9.6 3.2 6.4 -11.6337
1064 3 11.2 4.8 8 -11.035
1065 1 12.8 3.2 6.4 -11.6391
1066 2 14.4 4.8 8 -9.71225
1067 1 16 3.2 6.4 -11.6992
1068 3 17.6 4.8 8 -11.272
1069 4 19.2 3.2 6.4 -13.2759
1070 3 20.8 4.8 8 -11.1963
1071 1 22.4 3.2 6.4 -11.7028
1072 3 24 4.8 8 -11.2011
1073 4 25.6 3.2 6.4 -13.1408
1074 2 27.2 4.8 8 -9.67852
1075 4 28.8 3.2 6.4 -13.128
1076 3 30.4 4.8 8 -11.1723
1077 4 32 3.2 6.4 -13.289
1078 4 33.6 4.8 8 -13.2984
1079 4 35.2 3.2 6.4 -13.2805
1080 4 36.8 4.8 8 -13.2209
1081 1 38.4 3.2 6.4 -11.7566
1082 3 40 4.8 8 -11.1501
1083 1 41.6 3.2 6.4 -11.8278
1084 3 43.2 4.8 8 -11.2389
1085 1 44.8 3.2 6.4 -11.7975
1086 3 46.4 4.8 8 -11.2379
1087 4 48 3.2 6.4 -13.256
1088 2 49.6 4.8 8 -9.69537
1089 1 0 6.4 6.4 -11.7173
1090 3 1.6 8 8 -11.1071
1091 1 3.2 6.4 6.4 -11.7903
1092 3 4.8 8 8 -11.1518
1093 4 6.4 6.4 6.4 -13.2482
1094 4 8 8 8 -13.0595
1095 1 9.6 6.4 6.4 -11.6017
1096 2 11.2 8 8 -9.6511
1097 1 12.8 6.4 6.4 -11.601
1098 3 14.4 8 8 -11.1566
1099 1 16 6.4 6.4 -11.7637
1100 3 17.6 8 8 -11.0774
1101 1 19.2 6.4 6.4 -11.7742
1102 4 20.8 8 8 -13.0593
1103 1 22.4 6.4 6.4 -11.7458