ITEM: TIMESTEP
0
ITEM: NUMBER OF ATOMS
8192
ITEM: BOX BOUNDS pp pp pp
0.0000000000000000e+00 5.1200000000000003e+01
0.0000000000000000e+00 5.1200000000000003e+01
0.0000000000000000e+00 5.1200000000000003e+01
ITEM: ATOMS id type x y z c_eng
1 1 0 0 0 -11.7303
2 4 1.6 1.6 1.6 -13.2476
3 1 3.2 0 0 -11.7974
4 3 4.8 1.6 1.6 -11.1997
5 1 6.4 0 0 -11.7978
6 3 8 1.6 1.6 -11.1643
7 4 9.6 0 0 -13.1804
8 2 11.2 1.6 1.6 -9.66932
9 1 12.8 0 0 -11.6944
10 3 14.4 1.6 1.6 -11.2581
11 1 16 0 0 -11.8287
12 3 17.6 1.6 1.6 -11.1498
13 1 19.2 0 0 -11.7388
14 2 20.8 1.6 1.6 -9.75686
15 1 22.4 0 0 -11.6459
16 3 24 1.6 1.6 -11.1796
17 1 25.6 0 0 -11.6082
18 4 27.2 1.6 1.6 -13.2607
19 3 28.8 0 0 -11.1696
20 4 30.4 1.6 1.6 -13.2631
21 4 32 0 0 -13.1988
22 4 33.6 1.6 1.6 -13.1575
23 4 35.2 0 0 -13.133
24 3 36.8 1.6 1.6 -11.2483
25 4 38.4 0 0 -13.2214
26 3 40 1.6 1.6 -11.1858
27 1 41.6 0 0 -11.653
28 4 43.2 1.6 1.6 -12.978
29 1 44.8 0 0 -11.6526
30 3 46.4 1.6 1.6 -11.118
31 1 48 0 0 -11.7533
32 3 49.6 1.6 1.6 -11.0224
33 4 0 3.2 0 -13.1969
34 3 1.6 4.8 1.6 -11.0716
35 1 3.2 3.2 0 -11.7402
36 2 4.8 4.8 1.6 -9.74265
37 1 6.4 3.2 0 -11.7502
38 3 8 4.8 1.6 -11.127
39 1 9.6 3.2 0 -11.6524
40 4 11.2 4.8 1.6 -13.065
41 4 12.8 3.2 0 -13.2495
42 3 14.4 4.8 1.6 -11.2631
43 4 16 3.2 0 -13.3446
44 4 17.6 4.8 1.6 -13.1982
45 4 19.2 3.2 0 -13.3221
46 3 20.8 4.8 1.6 -11.2569
47 4 22.4 3.2 0 -13.3664
48 3 24 4.8 1.6 -11.2954
49 1 25.6 3.2 0 -11.6832
50 3 27.2 4.8 1.6 -11.0641
51 4 28.8 3.2 0 -13.1938
52 4 30.4 4.8 1.6 -13.1604
53 3 32 3.2 0 -11.0995
54 1 33.6 4.8 1.6 -11.6466
55 2 35.2 3.2 0 -9.79033
56 2 36.8 4.8 1.6 -9.70125
57 4 38.4 3.2 0 -13.2346
58 4 40 4.8 1.6 -13.1156
59 1 41.6 3.2 0 -11.7085
60 3 43.2 4.8 1.6 -11.0353
61 1 44.8 3.2 0 -11.7367
62 4 46.4 4.8 1.6 -13.0305
63 1 48 3.2 0 -11.6942
64 4 49.6 4.8 1.6 -13.1103
65 1 0 6.4 0 -11.7277
66 3 1.6 8 1.6 -11.1676
67 1 3.2 6.4 0 -11.6925
68 3 4.8 8 1.6 -11.1616
69 1 6.4 6.4 0 -11.8
70 3 8 8 1.6 -11.3089
71 1 9.6 6.4 0 -11.7392
72 3 11.2 8 1.6 -11.1207
73 4 12.8 6.4 0 -13.2496
74 3 14.4 8 1.6 -11.0304
75 1 16 6.4 0 -11.6549
76 4 17.6 8 1.6 -13.0391
77 4 19.2 6.4 0 -13.1414
78 4 20.8 8 1.6 -13.171
79 4 22.4 6.4 0 -13.2747
80 2 24 8 1.6 -9.55857
81 4 25.6 6.4 0 -13.2029
82 4 27.2 8 1.6 -13.1497
83 4 28.8 6.4 0 -13.2378
84 2 30.4 8 1.6 -9.65641
85 4 32 6.4 0 -13.1146
86 2 33.6 8 1.6 -9.66578
87 3 35.2 6.4 0 -11.0553
88 4 36.8 8 1.6 -13.2523
89 4 38.4 6.4 0 -13.2192
90 3 40 8 1.6 -11.1457
91 1 41.6 6.4 0 -11.7928
92 3 43.2 8 1.6 -11.2687
93 1 44.8 6.4 0 -11.753
94 4 46.4 8 1.6 -13.1182
95 4 48 6.4 0 -13.1983
96 3 49.6 8 1.6 -11.0336
97 1 0 9.6 0 -11.8121
98 3 1.6 11.2 1.6 -11.2432
99 1 3.2 9.6 0 -11.7988
100 3 4.8 11.2 1.6 -11.1586
101 1 6.4 9.6 0 -11.8257
102 3 8 11.2 1.6 -11.2282
103 1 9.6 9.6 0 -11.7708
104 4 11.2 11.2 1.6 -13.0663
105 1 12.8 9.6 0 -11.6701
106 4 14.4 11.2 1.6 -13.0239
107 1 16 9.6 0 -11.6774
108 3 17.6 11.2 1.6 -11.2239
109 4 19.2 9.6 0 -13.1872
110 3 20.8 11.2 1.6 -11.1068
111 4 22.4 9.6 0 -13.1882
112 1 24 11.2 1.6 -11.4234
113 4 25.6 9.6 0 -13.091
114 4 27.2 11.2 1.6 -13.0487
115 3 28.8 9.6 0 -11.2449
116 3 30.4 11.2 1.6 -11.2914
117 4 32 9.6 0 -13.3039
118 3 33.6 11.2 1.6 -11.1483
119 4 35.2 9.6 0 -13.1936
120 2 36.8 11.2 1.6 -9.70118
121 1 38.4 9.6 0 -11.669
122 2 40 11.2 1.6 -9.75954
123 4 41.6 9.6 0 -13.2979
124 3 43.2 11.2 1.6 -11.1979
125 1 44.8 9.6 0 -11.734
126 3 46.4 11.2 1.6 -11.1645
127 1 48 9.6 0 -11.8109
128 3 49.6 11.2 1.6 -11.2432
129 1 0 12.8 0 -11.8417
130 3 1.6 14.4 1.6 -11.1648
131 1 3.2 12.8 0 -11.7802
132 4 4.8 14.4 1.6 -13.1511
133 1 6.4 12.8 0 -11.7662
134 2 8 14.4 1.6 -9.75408
135 1 9.6 12.8 0 -11.7298
136 2 11.2 14.4 1.6 -9.66395
137 1 12.8 12.8 0 -11.6678
138 3 14.4 14.4 1.6 -11.156
139 4 16 12.8 0 -13.2779
140 3 17.6 14.4 1.6 -11.3052
141 4 19.2 12.8 0 -13.2896
142 3 20.8 14.4 1.6 -11.236
143 1 22.4 12.8 0 -11.655
144 3 24 14.4 1.6 -11.0385
145 1 25.6 12.8 0 -11.6324
146 3 27.2 14.4 1.6 -11.1661
147 4 28.8 12.8 0 -13.3004
148 2 30.4 14.4 1.6 -9.65868
149 4 32 12.8 0 -13.3077
150 4 33.6 14.4 1.6 -13.1197
151 4 35.2 12.8 0 -13.166
152 4 36.8 14.4 1.6 -13.1186
153 1 38.4 12.8 0 -11.6321
154 3 40 14.4 1.6 -11.2002
155 1 41.6 12.8 0 -11.7394
156 3 43.2 14.4 1.6 -11.2045
157 1 44.8 12.8 0 -11.7802
158 3 46.4 14.4 1.6 -11.2042
159 1 48 12.8 0 -11.8416
160 3 49.6 14.4 1.6 -11.1639
161 1 0 16 0 -11.7979
162 3 1.6 17.6 1.6 -11.1232
163 1 3.2 16 0 -11.687
164 3 4.8 17.6 1.6 -11.1578
165 1 6.4 16 0 -11.7388
166 3 8 17.6 1.6 -11.1122
167 1 9.6 16 0 -11.7249
168 4 11.2 17.6 1.6 -13.0327
169 1 12.8 16 0 -11.6811
170 3 14.4 17.6 1.6 -11.0643
171 4 16 16 0 -13.261
172 3 17.6 17.6 1.6 -11.2271
173 4 19.2 16 0 -13.2765
174 2 20.8 17.6 1.6 -9.7377
175 1 22.4 16 0 -11.6707
176 4 24 17.6 1.6 -13.1819
177 1 25.6 16 0 -11.7697
178 3 27.2 17.6 1.6 -11.1815
179 1 28.8 16 0 -11.7119
180 4 30.4 17.6 1.6 -13.1584
181 4 32 16 0 -13.0869
182 4 33.6 17.6 1.6 -13.1229
183 1 35.2 16 0 -11.6961
184 3 36.8 17.6 1.6 -11.1518
185 1 38.4 16 0 -11.7632
186 3 40 17.6 1.6 -11.2726
187 1 41.6 16 0 -11.8413
188 3 43.2 17.6 1.6 -11.2031
189 1 44.8 16 0 -11.8558
190 3 46.4 17.6 1.6 -11.2426
191 1 48 16 0 -11.8415
192 3 49.6 17.6 1.6 -11.277
193 4 0 19.2 0 -13.2773
194 4 1.6 20.8 1.6 -13.1995
195 1 3.2 19.2 0 -11.6641
196 2 4.8 20.8 1.6 -9.671
197 1 6.4 19.2 0 -11.7331
198 4 8 20.8 1.6 -13.049
199 4 9.6 19.2 0 -13.1062
200 4 11.2 20.8 1.6 -12.9851
201 4 12.8 19.2 0 -13.0582
202 1 14.4 20.8 1.6 -11.6399
203 4 16 19.2 0 -13.196
204 4 17.6 20.8 1.6 -13.2448
205 4 19.2 19.2 0 -13.1609
206 3 20.8 20.8 1.6 -11.1238
207 4 22.4 19.2 0 -13.231
208 4 24 20.8 1.6 -13.1822
209 4 25.6 19.2 0 -13.2526
210 2 27.2 20.8 1.6 -9.81061
211 2 28.8 19.2 0 -9.80031
212 3 30.4 20.8 1.6 -11.3182
213 4 32 19.2 0 -13.2652
214 3 33.6 20.8 1.6 -11.1875
215 4 35.2 19.2 0 -13.2547
216 3 36.8 20.8 1.6 -11.2345
217 1 38.4 19.2 0 -11.8435
218 3 40 20.8 1.6 -11.2621
219 1 41.6 19.2 0 -11.798
220 4 43.2 20.8 1.6 -13.0701
221 1 44.8 19.2 0 -11.7176
222 3 46.4 20.8 1.6 -11.1235
223 1 48 19.2 0 -11.8258
224 3 49.6 20.8 1.6 -11.2374
225 4 0 22.4 0 -13.2724
226 3 1.6 24 1.6 -11.1761
227 4 3.2 22.4 0 -13.2723
228 4 4.8 24 1.6 -13.2619
229 4 6.4 22.4 0 -13.1959
230 4 8 24 1.6 -13.1961
231 4 9.6 22.4 0 -13.1123
232 4 11.2 24 1.6 -13.1599
233 4 12.8 22.4 0 -13.106
234 1 14.4 24 1.6 -11.7643
235 3 16 22.4 0 -11.1078
236 4 17.6 24 1.6 -13.2247
237 4 19.2 22.4 0 -13.1474
238 4 20.8 24 1.6 -13.2371
239 4 22.4 22.4 0 -13.2153
240 1 24 24 1.6 -11.7058
241 4 25.6 22.4 0 -13.0134
242 4 27.2 24 1.6 -13.2099
243 4 28.8 22.4 0 -13.2662
244 3 30.4 24 1.6 -11.2822
245 4 32 22.4 0 -13.3203
246 3 33.6 24 1.6 -11.1496
247 1 35.2 22.4 0 -11.6856
248 3 36.8 24 1.6 -11.1658
249 1 38.4 22.4 0 -11.7098
250 4 40 24 1.6 -13.1592
251 4 41.6 22.4 0 -13.138
252 2 43.2 24 1.6 -9.60233
253 1 44.8 22.4 0 -11.6655
254 3 46.4 24 1.6 -11.2416
255 1 48 22.4 0 -11.817
256 3 49.6 24 1.6 -11.3059
257 4 0 25.6 0 -13.2272
259 4 3.2 25.6 0 -13.2666
261 4 6.4 25.6 0 -13.2373
263 4 9.6 25.6 0 -13.1555
265 4 12.8 25.6 0 -13.0935
267 3 16 25.6 0 -11.1933
269 4 19.2 25.6 0 -13.1311
271 3 22.4 25.6 0 -11.0743
273 3 25.6 25.6 0 -11.1149
275 2 28.8 25.6 0 -9.76288
277 4 32 25.6 0 -13.2209
279 1 35.2 25.6 0 -11.6975
281 1 38.4 25.6 0 -11.6882
283 4 41.6 25.6 0 -13.2555
285 4 44.8 25.6 0 -13.2774
287 1 48 25.6 0 -11.8141
258 4 1.6 27.2 1.6 -13.2398
289 1 0 28.8 0 -11.6019
260 4 4.8 27.2 1.6 -13.2401
291 3 3.2 28.8 0 -11.1035
262 1 8 27.2 1.6 -11.6858
293 2 6.4 28.8 0 -9.71079
264 1 11.2 27.2 1.6 -11.6942
295 3 9.6 28.8 0 -11.2223
266 1 14.4 27.2 1.6 -11.7775
297 3 12.8 28.8 0 -11.1852
268 4 17.6 27.2 1.6 -13.2392
299 2 16 28.8 0 -9.81841
270 1 20.8 27.2 1.6 -11.6506
301 3 19.2 28.8 0 -11.1801
272 1 24 27.2 1.6 -11.7573
303 2 22.4 28.8 0 -9.75959
305 4 25.6 28.8 0 -13.1433
274 1 27.2 27.2 1.6 -11.7321
307 4 28.8 28.8 0 -13.2279
276 2 30.4 27.2 1.6 -9.76377
309 4 32 28.8 0 -13.2432
278 4 33.6 27.2 1.6 -13.2801
311 4 35.2 28.8 0 -13.2155
280 3 36.8 27.2 1.6 -11.1172
313 4 38.4 28.8 0 -13.283
282 3 40 27.2 1.6 -11.1927
315 4 41.6 28.8 0 -13.324
284 4 43.2 27.2 1.6 -13.1472
317 1 44.8 28.8 0 -11.7732
286 3 46.4 27.2 1.6 -11.2373
319 4 48 28.8 0 -13.2148
288 3 49.6 27.2 1.6 -11.1946
290 1 1.6 30.4 1.6 -11.5983
321 2 0 32 0 -9.60471
292 1 4.8 30.4 1.6 -11.6662
323 4 3.2 32 0 -13.0242
294 4 8 30.4 1.6 -13.2615
325 4 6.4 32 0 -13.1147
296 1 11.2 30.4 1.6 -11.8372
327 3 9.6 32 0 -11.2522
298 4 14.4 30.4 1.6 -13.3069
329 3 12.8 32 0 -11.258
300 4 17.6 30.4 1.6 -13.2978
331 4 16 32 0 -13.3194
302 4 20.8 30.4 1.6 -13.1557
333 3 19.2 32 0 -11.0472
304 4 24 30.4 1.6 -13.1887
335 4 22.4 32 0 -13.1856
337 4 25.6 32 0 -13.2023
306 4 27.2 30.4 1.6 -13.2597
339 4 28.8 32 0 -13.1693
308 4 30.4 30.4 1.6 -13.2219
341 1 32 32 0 -11.732
310 3 33.6 30.4 1.6 -11.1052
343 1 35.2 32 0 -11.745
312 4 36.8 30.4 1.6 -13.2407
345 4 38.4 32 0 -13.2907
314 3 40 30.4 1.6 -11.2566
347 4 41.6 32 0 -13.339
316 3 43.2 30.4 1.6 -11.186
349 4 44.8 32 0 -13.2063
318 3 46.4 30.4 1.6 -11.163
351 1 48 32 0 -11.555
320 3 49.6 30.4 1.6 -11.1559
322 1 1.6 33.6 1.6 -11.6017
353 3 0 35.2 0 -11.2197
324 4 4.8 33.6 1.6 -13.1357
355 3 3.2 35.2 0 -11.1419
326 4 8 33.6 1.6 -13.2678
357 4 6.4 35.2 0 -13.2403
328 4 11.2 33.6 1.6 -13.259
359 4 9.6 35.2 0 -13.2224
330 1 14.4 33.6 1.6 -11.7157
361 2 12.8 35.2 0 -9.7375
332 4 17.6 33.6 1.6 -13.2199
363 3 16 35.2 0 -11.0858
334 4 20.8 33.6 1.6 -13.1568
365 4 19.2 35.2 0 -13.3168
336 4 24 33.6 1.6 -13.2273
367 4 22.4 35.2 0 -13.2906
369 1 25.6 35.2 0 -11.7074
338 2 27.2 33.6 1.6 -9.69941
371 4 28.8 35.2 0 -13.2438
340 4 30.4 33.6 1.6 -13.1736
373 4 32 35.2 0 -13.3001
342 2 33.6 33.6 1.6 -9.76278
375 4 35.2 35.2 0 -13.2671
344 3 36.8 33.6 1.6 -11.1412
377 4 38.4 35.2 0 -13.2166
346 3 40 33.6 1.6 -11.3121
379 4 41.6 35.2 0 -13.223
348 3 43.2 33.6 1.6 -11.2055
381 4 44.8 35.2 0 -13.2629
350 4 46.4 33.6 1.6 -13.0798
383 4 48 35.2 0 -13.1296
352 4 49.6 33.6 1.6 -13.1547
354 4 1.6 36.8 1.6 -13.2339
385 4 0 38.4 0 -13.1848
356 4 4.8 36.8 1.6 -13.2636
387 4 3.2 38.4 0 -13.2193
358 3 8 36.8 1.6 -11.1614
389 3 6.4 38.4 0 -11.1793
360 4 11.2 36.8 1.6 -13.1861
391 4 9.6 38.4 0 -13.296
362 4 14.4 36.8 1.6 -13.1188
393 4 12.8 38.4 0 -13.2394
364 3 17.6 36.8 1.6 -11.1943
395 1 16 38.4 0 -11.7025
366 3 20.8 36.8 1.6 -11.3327
397 1 19.2 38.4 0 -11.7946
368 3 24 36.8 1.6 -11.1723
399 4 22.4 38.4 0 -13.381
401 4 25.6 38.4 0 -13.1823
370 4 27.2 36.8 1.6 -13.2247
403 4 28.8 38.4 0 -13.1985
372 4 30.4 36.8 1.6 -13.2504
405 4 32 38.4 0 -13.2979
374 4 33.6 36.8 1.6 -13.2008
407 4 35.2 38.4 0 -13.1982
376 1 36.8 36.8 1.6 -11.6096
409 4 38.4 38.4 0 -13.09
378 4 40 36.8 1.6 -13.1226
411 4 41.6 38.4 0 -13.2
380 4 43.2 36.8 1.6 -13.2406
413 4 44.8 38.4 0 -13.1784
382 3 46.4 36.8 1.6 -11.0996
415 4 48 38.4 0 -13.2924
384 3 49.6 36.8 1.6 -11.1789
386 2 1.6 40 1.6 -9.62972
417 4 0 41.6 0 -13.1655
388 4 4.8 40 1.6 -13.152
419 4 3.2 41.6 0 -13.2251
390 4 8 40 1.6 -13.2498
421 4 6.4 41.6 0 -13.2439
392 3 11.2 40 1.6 -11.1596
423 1 9.6 41.6 0 -11.7848
394 3 14.4 40 1.6 -11.1232
425 1 12.8 41.6 0 -11.8394
396 3 17.6 40 1.6 -11.1626
427 1 16 41.6 0 -11.7198
398 3 20.8 40 1.6 -11.2329
429 1 19.2 41.6 0 -11.7394
400 4 24 40 1.6 -13.2718
431 1 22.4 41.6 0 -11.77
433 1 25.6 41.6 0 -11.6916
402 4 27.2 40 1.6 -13.0642
435 1 28.8 41.6 0 -11.5605
404 2 30.4 40 1.6 -9.70229
437 4 32 41.6 0 -13.1919
406 4 33.6 40 1.6 -13.2713
439 2 35.2 41.6 0 -9.66803
408 1 36.8 40 1.6 -11.6835
441 4 38.4 41.6 0 -13.2114
410 4 40 40 1.6 -13.2697
443 3 41.6 41.6 0 -11.2127
412 4 43.2 40 1.6 -13.1358
445 4 44.8 41.6 0 -13.2138
414 4 46.4 40 1.6 -13.1227
447 4 48 41.6 0 -13.116
416 2 49.6 40 1.6 -9.73353
418 3 1.6 43.2 1.6 -11.2328
449 1 0 44.8 0 -11.6409
420 3 4.8 43.2 1.6 -11.1561
451 4 3.2 44.8 0 -13.2247
422 3 8 43.2 1.6 -11.1614
453 4 6.4 44.8 0 -13.2506
424 3 11.2 43.2 1.6 -11.1235
455 1 9.6 44.8 0 -11.7488
426 2 14.4 43.2 1.6 -9.71429
457 1 12.8 44.8 0 -11.7662
428 4 17.6 43.2 1.6 -13.1102
459 1 16 44.8 0 -11.7788
430 2 20.8 43.2 1.6 -9.65376
461 1 19.2 44.8 0 -11.7466
432 3 24 43.2 1.6 -11.1528
463 1 22.4 44.8 0 -11.8256
465 4 25.6 44.8 0 -13.2943
434 4 27.2 43.2 1.6 -13.1917
467 4 28.8 44.8 0 -13.2572
436 4 30.4 43.2 1.6 -13.1523
469 3 32 44.8 0 -11.063
438 1 33.6 43.2 1.6 -11.6809
471 4 35.2 44.8 0 -13.0839
440 1 36.8 43.2 1.6 -11.7095
473 2 38.4 44.8 0 -9.67746
442 4 40 43.2 1.6 -13.2414
475 4 41.6 44.8 0 -13.2356
444 2 43.2 43.2 1.6 -9.84431
477 4 44.8 44.8 0 -13.2263
446 3 46.4 43.2 1.6 -11.139
479 1 48 44.8 0 -11.6155
448 2 49.6 43.2 1.6 -9.7532
450 2 1.6 46.4 1.6 -9.69051
481 4 0 48 0 -13.2231
452 4 4.8 46.4 1.6 -12.9659
483 1 3.2 48 0 -11.7441
454 4 8 46.4 1.6 -13.0261
485 1 6.4 48 0 -11.7486
456 4 11.2 46.4 1.6 -12.9766
487 4 9.6 48 0 -13.2063
458 3 14.4 46.4 1.6 -11.1884
489 1 12.8 48 0 -11.7151
460 3 17.6 46.4 1.6 -11.1916
491 4 16 48 0 -13.3615
462 3 20.8 46.4 1.6 -11.124
493 1 19.2 48 0 -11.8258
464 3 24 46.4 1.6 -11.3267
495 1 22.4 48 0 -11.7349
497 4 25.6 48 0 -13.2205
466 4 27.2 46.4 1.6 -13.2497
499 2 28.8 48 0 -9.76146
468 4 30.4 46.4 1.6 -13.2995
501 2 32 48 0 -9.69586
470 1 33.6 46.4 1.6 -11.7509
503 2 35.2 48 0 -9.67277
472 4 36.8 46.4 1.6 -13.2024
505 4 38.4 48 0 -13.1722
474 1 40 46.4 1.6 -11.6648
507 2 41.6 48 0 -9.71068
476 4 43.2 46.4 1.6 -13.1475
509 4 44.8 48 0 -13.2535
478 4 46.4 46.4 1.6 -13.2063
511 4 48 48 0 -13.2553
480 3 49.6 46.4 1.6 -11.0296
482 3 1.6 49.6 1.6 -11.158
484 3 4.8 49.6 1.6 -11.1203
486 3 8 49.6 1.6 -11.1603
488 4 11.2 49.6 1.6 -12.9637
490 2 14.4 49.6 1.6 -9.71659
492 3 17.6 49.6 1.6 -11.2703
494 2 20.8 49.6 1.6 -9.65889
496 4 24 49.6 1.6 -13.1572
498 2 27.2 49.6 1.6 -9.78539
500 4 30.4 49.6 1.6 -13.283
502 1 33.6 49.6 1.6 -11.6549
504 4 36.8 49.6 1.6 -13.1948
506 2 40 49.6 1.6 -9.76038
508 4 43.2 49.6 1.6 -13.1538
510 3 46.4 49.6 1.6 -11.1483
512 4 49.6 49.6 1.6 -13.2454
513 4 0 0 3.2 -13.1792
514 4 1.6 1.6 4.8 -13.2368
515 4 3.2 0 3.2 -13.2865
516 3 4.8 1.6 4.8 -11.1934
517 1 6.4 0 3.2 -11.7974
518 3 8 1.6 4.8 -11.2784
519 1 9.6 0 3.2 -11.7487
520 3 11.2 1.6 4.8 -11.0293
521 1 12.8 0 3.2 -11.5914
522 4 14.4 1.6 4.8 -13.1176
523 4 16 0 3.2 -13.239
524 4 17.6 1.6 4.8 -13.0857
525 1 19.2 0 3.2 -11.6468
526 4 20.8 1.6 4.8 -13.1092
527 4 22.4 0 3.2 -13.1219
528 3 24 1.6 4.8 -11.1443
529 4 25.6 0 3.2 -13.2765
530 4 27.2 1.6 4.8 -13.2352
531 3 28.8 0 3.2 -11.2527
532 4 30.4 1.6 4.8 -13.3042
533 2 32 0 3.2 -9.76089
534 4 33.6 1.6 4.8 -13.2635
535 4 35.2 0 3.2 -13.2248
536 3 36.8 1.6 4.8 -11.1766
537 4 38.4 0 3.2 -13.3131
538 3 40 1.6 4.8 -11.2195
539 4 41.6 0 3.2 -13.2474
540 4 43.2 1.6 4.8 -13.1922
541 1 44.8 0 3.2 -11.7122
542 3 46.4 1.6 4.8 -11.2266
543 4 48 0 3.2 -13.3039
544 2 49.6 1.6 4.8 -9.79348
545 4 0 3.2 3.2 -13.245
546 3 1.6 4.8 4.8 -11.1474
547 4 3.2 3.2 3.2 -13.2787
548 2 4.8 4.8 4.8 -9.7169
549 1 6.4 3.2 3.2 -11.7986
550 3 8 4.8 4.8 -11.127
551 1 9.6 3.2 3.2 -11.7029
552 4 11.2 4.8 4.8 -13.1074
553 4 12.8 3.2 3.2 -13.2418
554 3 14.4 4.8 4.8 -11.1579
555 4 16 3.2 3.2 -13.2702
556 3 17.6 4.8 4.8 -11.12
557 1 19.2 3.2 3.2 -11.7147
558 3 20.8 4.8 4.8 -11.2314
559 4 22.4 3.2 3.2 -13.3287
560 4 24 4.8 4.8 -13.1954
561 4 25.6 3.2 3.2 -13.236
562 2 27.2 4.8 4.8 -9.7881
563 4 28.8 3.2 3.2 -13.2437
564 3 30.4 4.8 4.8 -11.1
565 4 32 3.2 3.2 -13.2026
566 3 33.6 4.8 4.8 -11.0143
567 4 35.2 3.2 3.2 -13.2438
568 4 36.8 4.8 4.8 -13.2838
569 1 38.4 3.2 3.2 -11.7382
570 2 40 4.8 4.8 -9.66777
571 1 41.6 3.2 3.2 -11.6592
572 3 43.2 4.8 4.8 -11.1924
573 1 44.8 3.2 3.2 -11.6848
574 3 46.4 4.8 4.8 -11.2645
575 1 48 3.2 3.2 -11.6989
576 2 49.6 4.8 4.8 -9.7029
577 1 0 6.4 3.2 -11.6919
578 2 1.6 8 4.8 -9.72261
579 1 3.2 6.4 3.2 -11.7371
580 2 4.8 8 4.8 -9.65508
581 1 6.4 6.4 3.2 -11.7658
582 3 8 8 4.8 -11.1934
583 1 9.6 6.4 3.2 -11.7225
584 3 11.2 8 4.8 -11.0726
585 1 12.8 6.4 3.2 -11.7207
586 2 14.4 8 4.8 -9.67804
587 1 16 6.4 3.2 -11.7205
588 3 17.6 8 4.8 -11.1985
589 4 19.2 6.4 3.2 -13.2474
590 3 20.8 8 4.8 -11.1982
591 1 22.4 6.4 3.2 -11.702
592 2 24 8 4.8 -9.62502
593 1 25.6 6.4 3.2 -11.6793
594 3 27.2 8 4.8 -10.9882
595 1 28.8 6.4 3.2 -11.6654
596 4 30.4 8 4.8 -13.0717
597 1 32 6.4 3.2 -11.5645
598 4 33.6 8 4.8 -13.0307
599 4 35.2 6.4 3.2 -13.207
600 3 36.8 8 4.8 -10.98
601 4 38.4 6.4 3.2 -13.1824
602 4 40 8 4.8 -13.1591
603 1 41.6 6.4 3.2 -11.7553
604 3 43.2 8 4.8 -11.2359
605 4 44.8 6.4 3.2 -13.247
606 3 46.4 8 4.8 -11.1936
607 1 48 6.4 3.2 -11.6188
608 4 49.6 8 4.8 -13.1234
609 1 0 9.6 3.2 -11.7663
610 3 1.6 11.2 4.8 -11.1207
611 1 3.2 9.6 3.2 -11.7372
612 4 4.8 11.2 4.8 -13.1004
613 4 6.4 9.6 3.2 -13.3235
614 3 8 11.2 4.8 -11.2699
615 4 9.6 9.6 3.2 -13.3311
616 3 11.2 11.2 4.8 -11.1622
617 1 12.8 9.6 3.2 -11.6552
618 4 14.4 11.2 4.8 -12.9683
619 1 16 9.6 3.2 -11.6405
620 3 17.6 11.2 4.8 -11.1999
621 4 19.2 9.6 3.2 -13.3084
622 3 20.8 11.2 4.8 -11.2392
623 1 22.4 9.6 3.2 -11.6286
624 2 24 11.2 4.8 -9.61354
625 1 25.6 9.6 3.2 -11.5376
626 3 27.2 11.2 4.8 -11.1252
627 1 28.8 9.6 3.2 -11.68
628 3 30.4 11.2 4.8 -11.1643
629 1 32 9.6 3.2 -11.6533
630 2 33.6 11.2 4.8 -9.75007
631 1 35.2 9.6 3.2 -11.6967
632 3 36.8 11.2 4.8 -11.1584
633 4 38.4 9.6 3.2 -13.2165
634 4 40 11.2 4.8 -13.069
635 4 41.6 9.6 3.2 -13.2674
636 3 43.2 11.2 4.8 -11.1207
637 1 44.8 9.6 3.2 -11.8108
638 3 46.4 11.2 4.8 -11.2005
639 1 48 9.6 3.2 -11.7409
640 3 49.6 11.2 4.8 -11.1188
641 1 0 12.8 3.2 -11.7802
642 3 1.6 14.4 4.8 -11.1241
643 1 3.2 12.8 3.2 -11.7459
644 3 4.8 14.4 4.8 -11.1591
645 4 6.4 12.8 3.2 -13.2803
646 3 8 14.4 4.8 -11.2348
647 1 9.6 12.8 3.2 -11.7852
648 3 11.2 14.4 4.8 -11.199
649 4 12.8 12.8 3.2 -13.1502
650 3 14.4 14.4 4.8 -11.1212
651 1 16 12.8 3.2 -11.7486
652 3 17.6 14.4 4.8 -11.2435
653 1 19.2 12.8 3.2 -11.8694
654 3 20.8 14.4 4.8 -11.2026
655 1 22.4 12.8 3.2 -11.7212
656 3 24 14.4 4.8 -11.1656
657 1 25.6 12.8 3.2 -11.6376
658 3 27.2 14.4 4.8 -11.1653
659 1 28.8 12.8 3.2 -11.7729
660 3 30.4 14.4 4.8 -11.2057
661 1 32 12.8 3.2 -11.7575
662 3 33.6 14.4 4.8 -11.1204
663 4 35.2 12.8 3.2 -13.251
664 2 36.8 14.4 4.8 -9.75587
665 4 38.4 12.8 3.2 -13.2435
666 3 40 14.4 4.8 -11.0768
667 1 41.6 12.8 3.2 -11.758
668 2 43.2 14.4 4.8 -9.67724
669 1 44.8 12.8 3.2 -11.7808
670 2 46.4 14.4 4.8 -9.68768
671 1 48 12.8 3.2 -11.7665
672 4 49.6 14.4 4.8 -13.1045
673 1 0 16 3.2 -11.7803
674 3 1.6 17.6 4.8 -11.2054
675 1 3.2 16 3.2 -11.7978
676 3 4.8 17.6 4.8 -11.1594
677 4 6.4 16 3.2 -13.3068
678 4 8 17.6 4.8 -13.1477
679 4 9.6 16 3.2 -13.1865
680 2 11.2 17.6 4.8 -9.59325
681 1 12.8 16 3.2 -11.7055
682 4 14.4 17.6 4.8 -13.1222
683 1 16 16 3.2 -11.8104
684 3 17.6 17.6 4.8 -11.0393
685 1 19.2 16 3.2 -11.7807
686 4 20.8 17.6 4.8 -13.0392
687 4 22.4 16 3.2 -13.1804
688 4 24 17.6 4.8 -13.0602
689 1 25.6 16 3.2 -11.7148
690 4 27.2 17.6 4.8 -13.2345
691 1 28.8 16 3.2 -11.7105
692 3 30.4 17.6 4.8 -11.1554
693 1 32 16 3.2 -11.6523
694 2 33.6 17.6 4.8 -9.62373
695 4 35.2 16 3.2 -13.1104
696 4 36.8 17.6 4.8 -13.024
697 4 38.4 16 3.2 -13.244
698 4 40 17.6 4.8 -13.1549
699 1 41.6 16 3.2 -11.7879
700 3 43.2 17.6 4.8 -11.0817
701 1 44.8 16 3.2 -11.781
702 3 46.4 17.6 4.8 -11.2054
703 1 48 16 3.2 -11.7469
704 3 49.6 17.6 4.8 -11.1642
705 1 0 19.2 3.2 -11.7978
706 3 1.6 20.8 4.8 -11.1591
707 1 3.2 19.2 3.2 -11.7279
708 4 4.8 20.8 4.8 -13.1773
709 4 6.4 19.2 3.2 -13.1795
710 2 8 20.8 4.8 -9.63417
711 1 9.6 19.2 3.2 -11.5449
712 4 11.2 20.8 4.8 -13.1053
713 1 12.8 19.2 3.2 -11.5309
714 4 14.4 20.8 4.8 -13.1501
715 4 16 19.2 3.2 -13.1529
716 4 17.6 20.8 4.8 -13.1509
717 1 19.2 19.2 3.2 -11.6303
718 4 20.8 20.8 4.8 -13.0832
719 4 22.4 19.2 3.2 -13.185
720 4 24 20.8 4.8 -13.1913
721 2 25.6 19.2 3.2 -9.74426
722 3 27.2 20.8 4.8 -11.2083
723 4 28.8 19.2 3.2 -13.3863
724 3 30.4 20.8 4.8 -11.3267
725 4 32 19.2 3.2 -13.2274
726 4 33.6 20.8 4.8 -13.0155
727 1 35.2 19.2 3.2 -11.6699
728 2 36.8 20.8 4.8 -9.65441
729 4 38.4 19.2 3.2 -13.2873
730 3 40 20.8 4.8 -11.1884
731 4 41.6 19.2 3.2 -13.2493
732 4 43.2 20.8 4.8 -13.0221
733 1 44.8 19.2 3.2 -11.7324
734 3 46.4 20.8 4.8 -11.0807
735 1 48 19.2 3.2 -11.8416
736 3 49.6 20.8 4.8 -11.2426
737 1 0 22.4 3.2 -11.8273
738 3 1.6 24 4.8 -11.2963
739 4 3.2 22.4 3.2 -13.2049
740 4 4.8 24 4.8 -13.1905
741 4 6.4 22.4 3.2 -13.1827
742 4 8 24 4.8 -13.2929
743 4 9.6 22.4 3.2 -13.1402
744 4 11.2 24 4.8 -13.3294
745 3 12.8 22.4 3.2 -11.1477
746 1 14.4 24 4.8 -11.8412
747 3 16 22.4 3.2 -11.2668
748 4 17.6 24 4.8 -13.2724
749 4 19.2 22.4 3.2 -13.1408
750 4 20.8 24 4.8 -13.2065
751 3 22.4 22.4 3.2 -11.1323
752 1 24 24 4.8 -11.6718
753 4 25.6 22.4 3.2 -13.1959
754 4 27.2 24 4.8 -13.1583
755 1 28.8 22.4 3.2 -11.7534
756 2 30.4 24 4.8 -9.76698
757 4 32 22.4 3.2 -13.3118
758 4 33.6 24 4.8 -13.1089
759 1 35.2 22.4 3.2 -11.6825
760 2 36.8 24 4.8 -9.6824
761 4 38.4 22.4 3.2 -13.3038
762 3 40 24 4.8 -11.0764
763 4 41.6 22.4 3.2 -13.202
764 2 43.2 24 4.8 -9.65708
765 1 44.8 22.4 3.2 -11.6716
766 3 46.4 24 4.8 -11.2054
767 1 48 22.4 3.2 -11.8415
768 3 49.6 24 4.8 -11.2729
769 4 0 25.6 3.2 -13.3257
771 4 3.2 25.6 3.2 -13.3001
773 3 6.4 25.6 3.2 -11.0946
775 3 9.6 25.6 3.2 -11.2251
777 3 12.8 25.6 3.2 -11.1571
779 3 16 25.6 3.2 -11.2693
781 4 19.2 25.6 3.2 -13.1188
783 3 22.4 25.6 3.2 -11.2002
785 3 25.6 25.6 3.2 -11.1191
787 4 28.8 25.6 3.2 -13.2685
789 4 32 25.6 3.2 -13.2701
791 1 35.2 25.6 3.2 -11.7269
793 1 38.4 25.6 3.2 -11.7729
795 1 41.6 25.6 3.2 -11.6676
797 1 44.8 25.6 3.2 -11.702
799 1 48 25.6 3.2 -11.8278
770 4 1.6 27.2 4.8 -13.2191
801 4 0 28.8 3.2 -13.2464
772 4 4.8 27.2 4.8 -13.2714
803 3 3.2 28.8 3.2 -11.1437
774 4 8 27.2 4.8 -13.283
805 4 6.4 28.8 3.2 -13.2761
776 1 11.2 27.2 4.8 -11.7243
807 2 9.6 28.8 3.2 -9.69537
778 1 14.4 27.2 4.8 -11.7843
809 2 12.8 28.8 3.2 -9.74132
780 4 17.6 27.2 4.8 -13.2699
811 3 16 28.8 3.2 -11.2637
782 1 20.8 27.2 4.8 -11.7213
813 4 19.2 28.8 3.2 -13.0793
784 1 24 27.2 4.8 -11.7219
815 2 22.4 28.8 3.2 -9.72571
817 3 25.6 28.8 3.2 -11.2251
786 4 27.2 27.2 4.8 -13.2325
819 3 28.8 28.8 3.2 -11.2105
788 4 30.4 27.2 4.8 -13.2926
821 4 32 28.8 3.2 -13.3312
790 3 33.6 27.2 4.8 -11.1052
823 4 35.2 28.8 3.2 -13.2821
792 3 36.8 27.2 4.8 -11.1205
825 1 38.4 28.8 3.2 -11.7741
794 3 40 27.2 4.8 -11.168
827 1 41.6 28.8 3.2 -11.687
796 2 43.2 27.2 4.8 -9.62049
829 1 44.8 28.8 3.2 -11.7049
798 3 46.4 27.2 4.8 -11.2025
831 1 48 28.8 3.2 -11.8414
800 2 49.6 27.2 4.8 -9.81156
802 4 1.6 30.4 4.8 -13.1924
833 4 0 32 3.2 -13.1764
804 4 4.8 30.4 4.8 -13.298
835 2 3.2 32 3.2 -9.66639
806 4 8 30.4 4.8 -13.2027
837 3 6.4 32 3.2 -11.1416
808 1 11.2 30.4 4.8 -11.7267
839 3 9.6 32 3.2 -11.2245
810 1 14.4 30.4 4.8 -11.8283
841 3 12.8 32 3.2 -11.2364
812 4 17.6 30.4 4.8 -13.1956
843 3 16 32 3.2 -11.1072
814 4 20.8 30.4 4.8 -13.2184
845 1 19.2 32 3.2 -11.5866
816 4 24 30.4 4.8 -13.2967
847 4 22.4 32 3.2 -13.2177
849 3 25.6 32 3.2 -11.1634
818 4 27.2 30.4 4.8 -13.2815
851 4 28.8 32 3.2 -13.2035
820 4 30.4 30.4 4.8 -13.2196
853 4 32 32 3.2 -13.1608
822 3 33.6 30.4 4.8 -11.2598
855 1 35.2 32 3.2 -11.6878
824 2 36.8 30.4 4.8 -9.70059
857 4 38.4 32 3.2 -13.2255
826 2 40 30.4 4.8 -9.66415
859 4 41.6 32 3.2 -13.276
828 4 43.2 30.4 4.8 -13.0758
861 1 44.8 32 3.2 -11.7089
830 3 46.4 30.4 4.8 -11.2031
863 1 48 32 3.2 -11.7264
832 3 49.6 30.4 4.8 -11.2368
834 4 1.6 33.6 4.8 -13.1148
865 4 0 35.2 3.2 -13.2296
836 4 4.8 33.6 4.8 -13.193
867 4 3.2 35.2 3.2 -13.1787
838 1 8 33.6 4.8 -11.6516
869 4 6.4 35.2 3.2 -13.2328
840 4 11.2 33.6 4.8 -13.2144
871 4 9.6 35.2 3.2 -13.211
842 1 14.4 33.6 4.8 -11.6306
873 4 12.8 35.2 3.2 -13.0754
844 4 17.6 33.6 4.8 -13.1711
875 4 16 35.2 3.2 -13.1682
846 3 20.8 33.6 4.8 -11.1659
877 1 19.2 35.2 3.2 -11.7162
848 4 24 33.6 4.8 -13.2624
879 4 22.4 35.2 3.2 -13.2854
881 4 25.6 35.2 3.2 -13.2289
850 4 27.2 33.6 4.8 -13.1831
883 2 28.8 35.2 3.2 -9.7666
852 4 30.4 33.6 4.8 -13.1006
885 2 32 35.2 3.2 -9.70636
854 4 33.6 33.6 4.8 -13.0795
887 4 35.2 35.2 3.2 -13.1253
856 4 36.8 33.6 4.8 -13.1613
889 4 38.4 35.2 3.2 -13.2322
858 4 40 33.6 4.8 -13.1944
891 2 41.6 35.2 3.2 -9.74625
860 4 43.2 33.6 4.8 -13.2028
893 4 44.8 35.2 3.2 -13.2359
862 3 46.4 33.6 4.8 -11.0776
895 1 48 35.2 3.2 -11.6798
864 3 49.6 33.6 4.8 -11.1215
866 3 1.6 36.8 4.8 -11.0786
897 1 0 38.4 3.2 -11.7042
868 3 4.8 36.8 4.8 -11.1966
899 1 3.2 38.4 3.2 -11.6475
870 2 8 36.8 4.8 -9.81785
901 4 6.4 38.4 3.2 -13.2873
872 3 11.2 36.8 4.8 -11.147
903 1 9.6 38.4 3.2 -11.7566
874 4 14.4 36.8 4.8 -13.0454
905 1 12.8 38.4 3.2 -11.6768
876 3 17.6 36.8 4.8 -11.1187
907 1 16 38.4 3.2 -11.6996
878 3 20.8 36.8 4.8 -11.2666
909 1 19.2 38.4 3.2 -11.8692
880 2 24 36.8 4.8 -9.73402
911 4 22.4 38.4 3.2 -13.2872
913 4 25.6 38.4 3.2 -13.2241
882 4 27.2 36.8 4.8 -13.2162
915 2 28.8 38.4 3.2 -9.79306
884 4 30.4 36.8 4.8 -13.1835
917 2 32 38.4 3.2 -9.76722
886 1 33.6 36.8 4.8 -11.6566
919 3 35.2 38.4 3.2 -11.1871
888 1 36.8 36.8 4.8 -11.7133
921 3 38.4 38.4 3.2 -11.1479
890 1 40 36.8 4.8 -11.6633
923 4 41.6 38.4 3.2 -13.1614
892 2 43.2 36.8 4.8 -9.70872
925 1 44.8 38.4 3.2 -11.6271
894 4 46.4 36.8 4.8 -13.1079
927 1 48 38.4 3.2 -11.659
896 2 49.6 36.8 4.8 -9.71238
898 2 1.6 40 4.8 -9.74153
929 1 0 41.6 3.2 -11.7561
900 3 4.8 40 4.8 -11.1205
931 1 3.2 41.6 3.2 -11.7516
902 3 8 40 4.8 -11.1635
933 1 6.4 41.6 3.2 -11.7526
904 3 11.2 40 4.8 -11.2416
935 1 9.6 41.6 3.2 -11.78
906 2 14.4 40 4.8 -9.71441
937 1 12.8 41.6 3.2 -11.7843
908 3 17.6 40 4.8 -11.272
939 1 16 41.6 3.2 -11.7542
910 3 20.8 40 4.8 -11.232
941 4 19.2 41.6 3.2 -13.2461
912 4 24 40 4.8 -13.1939
943 1 22.4 41.6 3.2 -11.6763
945 3 25.6 41.6 3.2 -11.1231
914 4 27.2 40 4.8 -13.2628
947 4 28.8 41.6 3.2 -13.1354
916 4 30.4 40 4.8 -13.2685
949 4 32 41.6 3.2 -13.2182
918 4 33.6 40 4.8 -13.2801
951 3 35.2 41.6 3.2 -11.1567
920 4 36.8 40 4.8 -13.2935
953 3 38.4 41.6 3.2 -11.1907
922 4 40 40 4.8 -13.2353
955 4 41.6 41.6 3.2 -13.2967
924 3 43.2 40 4.8 -11.2122
957 4 44.8 41.6 3.2 -13.2796
926 2 46.4 40 4.8 -9.69705
959 4 48 41.6 3.2 -13.275
928 3 49.6 40 4.8 -11.1218
930 3 1.6 43.2 4.8 -11.2408
961 1 0 44.8 3.2 -11.784
932 3 4.8 43.2 4.8 -11.2002
963 1 3.2 44.8 3.2 -11.6984
934 3 8 43.2 4.8 -11.2438
965 1 6.4 44.8 3.2 -11.6667
936 3 11.2 43.2 4.8 -11.165
967 1 9.6 44.8 3.2 -11.7106
938 3 14.4 43.2 4.8 -11.2346
969 1 12.8 44.8 3.2 -11.7686
940 3 17.6 43.2 4.8 -11.1061
971 4 16 44.8 3.2 -13.2767
942 4 20.8 43.2 4.8 -13.0653
973 1 19.2 44.8 3.2 -11.6224
944 4 24 43.2 4.8 -13.2508
975 1 22.4 44.8 3.2 -11.6705
977 4 25.6 44.8 3.2 -13.326
946 4 27.2 43.2 4.8 -13.1583
979 2 28.8 44.8 3.2 -9.70303
948 4 30.4 43.2 4.8 -13.181
981 3 32 44.8 3.2 -11.1547
950 1 33.6 43.2 4.8 -11.7141
983 3 35.2 44.8 3.2 -11.2366
952 1 36.8 43.2 4.8 -11.7555
985 3 38.4 44.8 3.2 -11.1875
954 4 40 43.2 4.8 -13.1976
987 4 41.6 44.8 3.2 -13.2197
956 2 43.2 43.2 4.8 -9.82043
989 4 44.8 44.8 3.2 -13.218
958 3 46.4 43.2 4.8 -11.2991
991 1 48 44.8 3.2 -11.7719
960 3 49.6 43.2 4.8 -11.2022
962 3 1.6 46.4 4.8 -11.1241
993 1 0 48 3.2 -11.7434
964 4 4.8 46.4 4.8 -12.9689
995 1 3.2 48 3.2 -11.6291
966 3 8 46.4 4.8 -11.1211
997 1 6.4 48 3.2 -11.5995
968 3 11.2 46.4 4.8 -11.1235
999 1 9.6 48 3.2 -11.6393
970 3 14.4 46.4 4.8 -11.1514
1001 1 12.8 48 3.2 -11.6177
972 4 17.6 46.4 4.8 -13.1917
1003 4 16 48 3.2 -13.2996
974 4 20.8 46.4 4.8 -12.9426
1005 1 19.2 48 3.2 -11.652
976 3 24 46.4 4.8 -11.206
1007 4 22.4 48 3.2 -13.2304
1009 3 25.6 48 3.2 -11.1885
978 1 27.2 46.4 4.8 -11.6496
1011 2 28.8 48 3.2 -9.80819
980 1 30.4 46.4 4.8 -11.6815
1013 3 32 48 3.2 -11.1963
982 1 33.6 46.4 4.8 -11.7737
1015 3 35.2 48 3.2 -11.227
984 4 36.8 46.4 4.8 -13.2998
1017 4 38.4 48 3.2 -13.2515
986 4 40 46.4 4.8 -13.205
1019 3 41.6 48 3.2 -11.1882
988 4 43.2 46.4 4.8 -13.2522
1021 4 44.8 48 3.2 -13.296
990 2 46.4 46.4 4.8 -9.81661
1023 4 48 48 3.2 -13.2724
992 3 49.6 46.4 4.8 -11.2013
994 3 1.6 49.6 4.8 -11.1192
996 4 4.8 49.6 4.8 -13.153
998 3 8 49.6 4.8 -11.1221
1000 2 11.2 49.6 4.8 -9.6854
1002 4 14.4 49.6 4.8 -13.1143
1004 3 17.6 49.6 4.8 -11.0694
1006 4 20.8 49.6 4.8 -12.9996
1008 4 24 49.6 4.8 -13.1812
1010 1 27.2 49.6 4.8 -11.6603
1012 1 30.4 49.6 4.8 -11.7706
1014 4 33.6 49.6 4.8 -13.2753
1016 4 36.8 49.6 4.8 -13.261
1018 2 40 49.6 4.8 -9.83786
1020 3 43.2 49.6 4.8 -11.2028
1022 3 46.4 49.6 4.8 -11.2884
1024 4 49.6 49.6 4.8 -13.1997
1025 1 0 0 6.4 -11.7321
1026 2 1.6 1.6 8 -9.73176
1027 4 3.2 0 6.4 -13.2871
1028 3 4.8 1.6 8 -11.2379
1029 1 6.4 0 6.4 -11.7788
1030 3 8 1.6 8 -11.1623
1031 4 9.6 0 6.4 -13.2693
1032 4 11.2 1.6 8 -13.1606
1033 1 12.8 0 6.4 -11.6853
1034 2 14.4 1.6 8 -9.6381
1035 4 16 0 6.4 -13.1362
1036 4 17.6 1.6 8 -13.0277
1037 4 19.2 0 6.4 -13.1806
1038 3 20.8 1.6 8 -11.1983
1039 1 22.4 0 6.4 -11.7137
1040 3 24 1.6 8 -11.2687
1041 4 25.6 0 6.4 -13.173
1042 2 27.2 1.6 8 -9.79545
1043 3 28.8 0 6.4 -11.1489
1044 4 30.4 1.6 8 -13.1941
1045 3 32 0 6.4 -11.1425
1046 4 33.6 1.6 8 -13.2383
1047 4 35.2 0 6.4 -13.2978
1048 4 36.8 1.6 8 -13.3603
1049 4 38.4 0 6.4 -13.2564
1050 4 40 1.6 8 -13.1848
1051 4 41.6 0 6.4 -13.2271
1052 2 43.2 1.6 8 -9.67317
1053 4 44.8 0 6.4 -13.274
1054 4 46.4 1.6 8 -13.2473
1055 4 48 0 6.4 -13.2714
1056 3 49.6 1.6 8 -11.1072
1057 4 0 3.2 6.4 -13.2346
1058 4 1.6 4.8 8 -13.0762
1059 4 3.2 3.2 6.4 -13.2444
1060 2 4.8 4.8 8 -9.69141
1061 1 6.4 3.2 6.4 -11.7983
1062 3 8 4.8 8 -11.2
1063 1 9.6 3.2 6.4 -11.7621
1064 3 11.2 4.8 8 -11.0775
1065 4 12.8 3.2 6.4 -13.2039
1066 3 14.4 4.8 8 -11.1623
1067 1 16 3.2 6.4 -11.6335
1068 4 17.6 4.8 8 -13.0642
1069 4 19.2 3.2 6.4 -13.1738
1070 3 20.8 4.8 8 -11.2364
1071 4 22.4 3.2 6.4 -13.3162
1072 3 24 4.8 8 -11.193
1073 1 25.6 3.2 6.4 -11.76
1074 3 27.2 4.8 8 -11.1762
1075 4 28.8 3.2 6.4 -13.2675
1076 4 30.4 4.8 8 -13.1793
1077 4 32 3.2 6.4 -13.2606
1078 4 33.6 4.8 8 -13.2606
1079 4 35.2 3.2 6.4 -13.285
1080 3 36.8 4.8 8 -11.0802
1081 4 38.4 3.2 6.4 -13.2392
1082 4 40 4.8 8 -13.1694
1083 4 41.6 3.2 6.4 -13.2065
1084 4 43.2 4.8 8 -13.2152
1085 4 44.8 3.2 6.4 -13.282
1086 3 46.4 4.8 8 -11.1412
1087 4 48 3.2 6.4 -13.333
1088 4 49.6 4.8 8 -13.1131
1089 4 0 6.4 6.4 -13.1379
1090 3 1.6 8 8 -11.0663
1091 1 3.2 6.4 6.4 -11.6981
1092 3 4.8 8 8 -11.1164
1093 1 6.4 6.4 6.4 -11.7132
1094 4 8 8 8 -13.1065
1095 1 9.6 6.4 6.4 -11.6744
1096 4 11.2 8 8 -13.0308
1097 1 12.8 6.4 6.4 -11.7173
1098 3 14.4 8 8 -11.1221
1099 1 16 6.4 6.4 -11.7502
1100 3 17.6 8 8 -11.1198
1101 1 19.2 6.4 6.4 -11.8107
1102 3 20.8 8 8 -11.1992
1103 1 22.4 6.4 6.4 -11.7556