ITEM: TIMESTEP
0
ITEM: NUMBER OF ATOMS
8192
ITEM: BOX BOUNDS pp pp pp
0.0000000000000000e+00 5.1200000000000003e+01
0.0000000000000000e+00 5.1200000000000003e+01
0.0000000000000000e+00 5.1200000000000003e+01
ITEM: ATOMS id type x y z c_eng
1 1 0 0 0 -11.7389
2 3 1.6 1.6 1.6 -11.0764
3 1 3.2 0 0 -11.7976
4 3 4.8 1.6 1.6 -11.2373
5 1 6.4 0 0 -11.7985
6 3 8 1.6 1.6 -11.1473
7 4 9.6 0 0 -13.179
8 4 11.2 1.6 1.6 -13.1348
9 4 12.8 0 0 -13.2091
10 4 14.4 1.6 1.6 -13.1697
11 1 16 0 0 -11.7329
12 3 17.6 1.6 1.6 -11.0365
13 1 19.2 0 0 -11.6748
14 3 20.8 1.6 1.6 -11.2042
15 1 22.4 0 0 -11.81
16 3 24 1.6 1.6 -11.1929
17 4 25.6 0 0 -13.3354
18 2 27.2 1.6 1.6 -9.70224
19 3 28.8 0 0 -11.1001
20 1 30.4 1.6 1.6 -11.5808
21 2 32 0 0 -9.71279
22 1 33.6 1.6 1.6 -11.6474
23 3 35.2 0 0 -11.0728
24 1 36.8 1.6 1.6 -11.6155
25 4 38.4 0 0 -13.1559
26 4 40 1.6 1.6 -13.2457
27 4 41.6 0 0 -13.1803
28 3 43.2 1.6 1.6 -11.1433
29 4 44.8 0 0 -13.2263
30 3 46.4 1.6 1.6 -11.2997
31 4 48 0 0 -13.2443
32 2 49.6 1.6 1.6 -9.78309
33 1 0 3.2 0 -11.6683
34 4 1.6 4.8 1.6 -13.1153
35 1 3.2 3.2 0 -11.7726
36 2 4.8 4.8 1.6 -9.63184
37 1 6.4 3.2 0 -11.6311
38 4 8 4.8 1.6 -12.9438
39 1 9.6 3.2 0 -11.5911
40 4 11.2 4.8 1.6 -13.2041
41 2 12.8 3.2 0 -9.77012
42 3 14.4 4.8 1.6 -11.072
43 1 16 3.2 0 -11.6626
44 3 17.6 4.8 1.6 -11.1255
45 1 19.2 3.2 0 -11.7371
46 3 20.8 4.8 1.6 -11.2016
47 4 22.4 3.2 0 -13.2477
48 4 24 4.8 1.6 -13.1173
49 4 25.6 3.2 0 -13.2573
50 2 27.2 4.8 1.6 -9.70977
51 4 28.8 3.2 0 -13.188
52 1 30.4 4.8 1.6 -11.5467
53 3 32 3.2 0 -10.9885
54 4 33.6 4.8 1.6 -13.1044
55 4 35.2 3.2 0 -13.0362
56 4 36.8 4.8 1.6 -13.1699
57 3 38.4 3.2 0 -11.0534
58 4 40 4.8 1.6 -13.1419
59 2 41.6 3.2 0 -9.86219
60 4 43.2 4.8 1.6 -13.2051
61 4 44.8 3.2 0 -13.276
62 3 46.4 4.8 1.6 -11.185
63 4 48 3.2 0 -13.2689
64 3 49.6 4.8 1.6 -11.1087
65 1 0 6.4 0 -11.6288
66 2 1.6 8 1.6 -9.66657
67 4 3.2 6.4 0 -13.1375
68 4 4.8 8 1.6 -13.0258
69 1 6.4 6.4 0 -11.5965
70 3 8 8 1.6 -11.1172
71 4 9.6 6.4 0 -13.2053
72 3 11.2 8 1.6 -11.1589
73 4 12.8 6.4 0 -13.2539
74 4 14.4 8 1.6 -13.1111
75 1 16 6.4 0 -11.5645
76 2 17.6 8 1.6 -9.65944
77 1 19.2 6.4 0 -11.7405
78 3 20.8 8 1.6 -11.3363
79 4 22.4 6.4 0 -13.2677
80 3 24 8 1.6 -11.1511
81 4 25.6 6.4 0 -13.2106
82 3 27.2 8 1.6 -11.1965
83 4 28.8 6.4 0 -13.1483
84 4 30.4 8 1.6 -13.1857
85 2 32 6.4 0 -9.6772
86 4 33.6 8 1.6 -13.1748
87 4 35.2 6.4 0 -13.134
88 2 36.8 8 1.6 -9.73573
89 4 38.4 6.4 0 -13.2846
90 2 40 8 1.6 -9.73795
91 2 41.6 6.4 0 -9.73215
92 2 43.2 8 1.6 -9.70231
93 1 44.8 6.4 0 -11.7294
94 3 46.4 8 1.6 -11.1892
95 4 48 6.4 0 -13.2356
96 4 49.6 8 1.6 -13.0691
97 1 0 9.6 0 -11.6718
98 3 1.6 11.2 1.6 -11.1971
99 1 3.2 9.6 0 -11.6461
100 3 4.8 11.2 1.6 -11.1897
101 1 6.4 9.6 0 -11.6614
102 3 8 11.2 1.6 -11.1203
103 1 9.6 9.6 0 -11.8556
104 3 11.2 11.2 1.6 -11.2773
105 1 12.8 9.6 0 -11.7662
106 3 14.4 11.2 1.6 -11.2368
107 1 16 9.6 0 -11.6215
108 3 17.6 11.2 1.6 -11.1978
109 4 19.2 9.6 0 -13.2676
110 3 20.8 11.2 1.6 -11.2944
111 4 22.4 9.6 0 -13.3404
112 3 24 11.2 1.6 -11.2222
113 1 25.6 9.6 0 -11.6766
114 3 27.2 11.2 1.6 -11.2696
115 4 28.8 9.6 0 -13.2084
116 3 30.4 11.2 1.6 -11.232
117 4 32 9.6 0 -13.2382
118 3 33.6 11.2 1.6 -11.1385
119 3 35.2 9.6 0 -11.2001
120 4 36.8 11.2 1.6 -13.2242
121 4 38.4 9.6 0 -13.1797
122 4 40 11.2 1.6 -13.0001
123 4 41.6 9.6 0 -13.163
124 2 43.2 11.2 1.6 -9.60106
125 1 44.8 9.6 0 -11.7068
126 4 46.4 11.2 1.6 -13.1553
127 1 48 9.6 0 -11.7101
128 3 49.6 11.2 1.6 -11.1197
129 1 0 12.8 0 -11.812
130 3 1.6 14.4 1.6 -11.3102
131 1 3.2 12.8 0 -11.7593
132 3 4.8 14.4 1.6 -11.159
133 1 6.4 12.8 0 -11.7176
134 4 8 14.4 1.6 -13.0076
135 1 9.6 12.8 0 -11.7803
136 3 11.2 14.4 1.6 -11.1599
137 1 12.8 12.8 0 -11.8555
138 3 14.4 14.4 1.6 -11.2761
139 1 16 12.8 0 -11.7889
140 3 17.6 14.4 1.6 -11.204
141 4 19.2 12.8 0 -13.2797
142 3 20.8 14.4 1.6 -11.1925
143 4 22.4 12.8 0 -13.2456
144 4 24 14.4 1.6 -13.2505
145 4 25.6 12.8 0 -13.1907
146 2 27.2 14.4 1.6 -9.81969
147 4 28.8 12.8 0 -13.2363
148 3 30.4 14.4 1.6 -11.155
149 1 32 12.8 0 -11.668
150 2 33.6 14.4 1.6 -9.76053
151 4 35.2 12.8 0 -13.208
152 3 36.8 14.4 1.6 -11.1411
153 4 38.4 12.8 0 -13.1712
154 4 40 14.4 1.6 -13.0717
155 4 41.6 12.8 0 -13.1237
156 1 43.2 14.4 1.6 -11.4657
157 4 44.8 12.8 0 -13.1898
158 3 46.4 14.4 1.6 -10.9877
159 1 48 12.8 0 -11.8108
160 3 49.6 14.4 1.6 -11.2775
161 1 0 16 0 -11.7593
162 3 1.6 17.6 1.6 -11.1877
163 1 3.2 16 0 -11.7705
164 2 4.8 17.6 1.6 -9.6913
165 1 6.4 16 0 -11.7664
166 3 8 17.6 1.6 -11.1944
167 1 9.6 16 0 -11.7802
168 3 11.2 17.6 1.6 -11.2414
169 1 12.8 16 0 -11.8416
170 3 14.4 17.6 1.6 -11.2054
171 1 16 16 0 -11.7098
172 3 17.6 17.6 1.6 -11.1994
173 1 19.2 16 0 -11.6749
174 3 20.8 17.6 1.6 -11.1834
175 2 22.4 16 0 -9.7561
176 4 24 17.6 1.6 -13.1397
177 4 25.6 16 0 -13.1881
178 3 27.2 17.6 1.6 -11.1755
179 4 28.8 16 0 -13.2454
180 2 30.4 17.6 1.6 -9.68882
181 1 32 16 0 -11.585
182 2 33.6 17.6 1.6 -9.66407
183 4 35.2 16 0 -13.2894
184 4 36.8 17.6 1.6 -13.1923
185 3 38.4 16 0 -11.2124
186 4 40 17.6 1.6 -13.1535
187 4 41.6 16 0 -13.1986
188 3 43.2 17.6 1.6 -10.9836
189 1 44.8 16 0 -11.7416
190 3 46.4 17.6 1.6 -11.1668
191 1 48 16 0 -11.812
192 3 49.6 17.6 1.6 -11.2002
193 1 0 19.2 0 -11.6923
194 2 1.6 20.8 1.6 -9.69591
195 1 3.2 19.2 0 -11.6616
196 4 4.8 20.8 1.6 -13.208
197 1 6.4 19.2 0 -11.7445
198 3 8 20.8 1.6 -11.2764
199 1 9.6 19.2 0 -11.78
200 3 11.2 20.8 1.6 -11.2193
201 1 12.8 19.2 0 -11.7387
202 2 14.4 20.8 1.6 -9.75987
203 1 16 19.2 0 -11.7309
204 2 17.6 20.8 1.6 -9.70636
205 4 19.2 19.2 0 -13.2146
206 1 20.8 20.8 1.6 -11.5916
207 2 22.4 19.2 0 -9.70608
208 4 24 20.8 1.6 -13.2462
209 4 25.6 19.2 0 -13.2093
210 3 27.2 20.8 1.6 -11.2257
211 4 28.8 19.2 0 -13.2326
212 4 30.4 20.8 1.6 -13.1082
213 1 32 19.2 0 -11.6162
214 2 33.6 20.8 1.6 -9.56326
215 4 35.2 19.2 0 -13.1908
216 4 36.8 20.8 1.6 -13.1591
217 4 38.4 19.2 0 -13.2963
218 3 40 20.8 1.6 -11.1957
219 4 41.6 19.2 0 -13.3033
220 3 43.2 20.8 1.6 -11.2378
221 1 44.8 19.2 0 -11.782
222 4 46.4 20.8 1.6 -13.1133
223 1 48 19.2 0 -11.7407
224 3 49.6 20.8 1.6 -11.1608
225 1 0 22.4 0 -11.7824
226 3 1.6 24 1.6 -11.1568
227 1 3.2 22.4 0 -11.6857
228 2 4.8 24 1.6 -9.76578
229 4 6.4 22.4 0 -13.31
230 4 8 24 1.6 -13.3008
231 3 9.6 22.4 0 -11.1558
232 1 11.2 24 1.6 -11.7355
233 4 12.8 22.4 0 -13.2395
234 4 14.4 24 1.6 -13.3031
235 4 16 22.4 0 -13.301
236 4 17.6 24 1.6 -13.2719
237 4 19.2 22.4 0 -13.1537
238 1 20.8 24 1.6 -11.6183
239 3 22.4 22.4 0 -11.1554
240 4 24 24 1.6 -13.2909
241 3 25.6 22.4 0 -11.3197
242 4 27.2 24 1.6 -13.2755
243 4 28.8 22.4 0 -13.238
244 2 30.4 24 1.6 -9.66265
245 4 32 22.4 0 -13.2036
246 4 33.6 24 1.6 -13.2438
247 4 35.2 22.4 0 -13.2136
248 3 36.8 24 1.6 -11.1589
249 1 38.4 22.4 0 -11.8448
250 3 40 24 1.6 -11.2773
251 1 41.6 22.4 0 -11.8568
252 3 43.2 24 1.6 -11.1626
253 4 44.8 22.4 0 -13.2106
254 4 46.4 24 1.6 -13.1187
255 4 48 22.4 0 -13.2187
256 3 49.6 24 1.6 -11.1973
257 1 0 25.6 0 -11.7378
259 4 3.2 25.6 0 -13.2465
261 2 6.4 25.6 0 -9.73855
263 3 9.6 25.6 0 -11.187
265 2 12.8 25.6 0 -9.79209
267 3 16 25.6 0 -11.2915
269 3 19.2 25.6 0 -11.2306
271 3 22.4 25.6 0 -11.1924
273 2 25.6 25.6 0 -9.82179
275 4 28.8 25.6 0 -13.2565
277 2 32 25.6 0 -9.78137
279 1 35.2 25.6 0 -11.8066
281 1 38.4 25.6 0 -11.8254
283 1 41.6 25.6 0 -11.7801
285 1 44.8 25.6 0 -11.6708
287 1 48 25.6 0 -11.7224
258 4 1.6 27.2 1.6 -13.2433
289 4 0 28.8 0 -13.1687
260 4 4.8 27.2 1.6 -13.2715
291 3 3.2 28.8 0 -11.1129
262 1 8 27.2 1.6 -11.7142
293 2 6.4 28.8 0 -9.69856
264 1 11.2 27.2 1.6 -11.7748
295 2 9.6 28.8 0 -9.75473
266 1 14.4 27.2 1.6 -11.8434
297 3 12.8 28.8 0 -11.119
268 1 17.6 27.2 1.6 -11.8694
299 3 16 28.8 0 -11.2752
270 1 20.8 27.2 1.6 -11.7253
301 3 19.2 28.8 0 -11.1573
272 4 24 27.2 1.6 -13.2015
303 4 22.4 28.8 0 -13.1628
305 4 25.6 28.8 0 -13.2157
274 4 27.2 27.2 1.6 -13.2972
307 4 28.8 28.8 0 -13.2742
276 3 30.4 27.2 1.6 -11.2467
309 1 32 28.8 0 -11.8199
278 3 33.6 27.2 1.6 -11.3276
311 1 35.2 28.8 0 -11.781
280 2 36.8 27.2 1.6 -9.83021
313 1 38.4 28.8 0 -11.7532
282 3 40 27.2 1.6 -11.1613
315 1 41.6 28.8 0 -11.7269
284 3 43.2 27.2 1.6 -11.2319
317 4 44.8 28.8 0 -13.237
286 3 46.4 27.2 1.6 -11.256
319 4 48 28.8 0 -13.2695
288 3 49.6 27.2 1.6 -11.2555
290 1 1.6 30.4 1.6 -11.6651
321 3 0 32 0 -11.1119
292 1 4.8 30.4 1.6 -11.7059
323 3 3.2 32 0 -11.1632
294 1 8 30.4 1.6 -11.7407
325 2 6.4 32 0 -9.70043
296 1 11.2 30.4 1.6 -11.784
327 3 9.6 32 0 -11.1186
298 1 14.4 30.4 1.6 -11.828
329 2 12.8 32 0 -9.74654
300 1 17.6 30.4 1.6 -11.7801
331 3 16 32 0 -11.1179
302 1 20.8 30.4 1.6 -11.6408
333 2 19.2 32 0 -9.70452
304 4 24 30.4 1.6 -13.1478
335 4 22.4 32 0 -13.1855
337 4 25.6 32 0 -13.2605
306 4 27.2 30.4 1.6 -13.2317
339 1 28.8 32 0 -11.7621
308 3 30.4 30.4 1.6 -11.2207
341 4 32 32 0 -13.3084
310 3 33.6 30.4 1.6 -11.2571
343 4 35.2 32 0 -13.2731
312 3 36.8 30.4 1.6 -11.185
345 4 38.4 32 0 -13.1719
314 2 40 30.4 1.6 -9.67597
347 2 41.6 32 0 -9.64913
316 4 43.2 30.4 1.6 -13.1408
349 2 44.8 32 0 -9.77006
318 4 46.4 30.4 1.6 -13.1801
351 3 48 32 0 -11.2162
320 4 49.6 30.4 1.6 -13.2662
322 4 1.6 33.6 1.6 -13.1603
353 2 0 35.2 0 -9.76593
324 4 4.8 33.6 1.6 -13.2366
355 2 3.2 35.2 0 -9.8176
326 4 8 33.6 1.6 -13.272
357 3 6.4 35.2 0 -11.1479
328 1 11.2 33.6 1.6 -11.7718
359 3 9.6 35.2 0 -11.2662
330 4 14.4 33.6 1.6 -13.2454
361 3 12.8 35.2 0 -11.1823
332 1 17.6 33.6 1.6 -11.6597
363 4 16 35.2 0 -13.2412
334 2 20.8 33.6 1.6 -9.73593
365 1 19.2 35.2 0 -11.6981
336 3 24 33.6 1.6 -11.2952
367 1 22.4 35.2 0 -11.8129
369 1 25.6 35.2 0 -11.8275
338 3 27.2 33.6 1.6 -11.1053
371 1 28.8 35.2 0 -11.7193
340 4 30.4 33.6 1.6 -13.3171
373 3 32 35.2 0 -11.1998
342 4 33.6 33.6 1.6 -13.2191
375 2 35.2 35.2 0 -9.77022
344 1 36.8 33.6 1.6 -11.6219
377 4 38.4 35.2 0 -13.1941
346 1 40 33.6 1.6 -11.5978
379 3 41.6 35.2 0 -11.1055
348 4 43.2 33.6 1.6 -13.1935
381 2 44.8 35.2 0 -9.79445
350 4 46.4 33.6 1.6 -13.2598
383 4 48 35.2 0 -13.1643
352 4 49.6 33.6 1.6 -13.2346
354 4 1.6 36.8 1.6 -13.2567
385 3 0 38.4 0 -11.1331
356 2 4.8 36.8 1.6 -9.75358
387 2 3.2 38.4 0 -9.78829
358 4 8 36.8 1.6 -13.2613
389 4 6.4 38.4 0 -13.1678
360 4 11.2 36.8 1.6 -13.2617
391 3 9.6 38.4 0 -11.1766
362 4 14.4 36.8 1.6 -13.2245
393 4 12.8 38.4 0 -13.2236
364 3 17.6 36.8 1.6 -11.1506
395 4 16 38.4 0 -13.2576
366 3 20.8 36.8 1.6 -11.2714
397 1 19.2 38.4 0 -11.7494
368 3 24 36.8 1.6 -11.2259
399 1 22.4 38.4 0 -11.7432
401 4 25.6 38.4 0 -13.2877
370 4 27.2 36.8 1.6 -13.2727
403 4 28.8 38.4 0 -13.1865
372 4 30.4 36.8 1.6 -13.2302
405 4 32 38.4 0 -13.24
374 4 33.6 36.8 1.6 -13.3288
407 3 35.2 38.4 0 -11.2514
376 4 36.8 36.8 1.6 -13.2838
409 2 38.4 38.4 0 -9.70128
378 1 40 36.8 1.6 -11.6987
411 4 41.6 38.4 0 -13.1436
380 4 43.2 36.8 1.6 -13.2235
413 4 44.8 38.4 0 -13.1546
382 4 46.4 36.8 1.6 -13.1024
415 2 48 38.4 0 -9.81508
384 4 49.6 36.8 1.6 -13.251
386 1 1.6 40 1.6 -11.6535
417 4 0 41.6 0 -13.2362
388 4 4.8 40 1.6 -13.222
419 3 3.2 41.6 0 -11.1069
390 4 8 40 1.6 -13.267
421 2 6.4 41.6 0 -9.70301
392 4 11.2 40 1.6 -13.2696
423 4 9.6 41.6 0 -13.2526
394 3 14.4 40 1.6 -11.2065
425 4 12.8 41.6 0 -13.1939
396 3 17.6 40 1.6 -11.2557
427 4 16 41.6 0 -13.1752
398 2 20.8 40 1.6 -9.70332
429 4 19.2 41.6 0 -13.151
400 4 24 40 1.6 -13.2668
431 4 22.4 41.6 0 -13.1673
433 4 25.6 41.6 0 -13.2928
402 4 27.2 40 1.6 -13.2736
435 2 28.8 41.6 0 -9.73219
404 1 30.4 40 1.6 -11.7408
437 3 32 41.6 0 -11.2281
406 1 33.6 40 1.6 -11.7984
439 3 35.2 41.6 0 -11.1444
408 4 36.8 40 1.6 -13.2902
441 4 38.4 41.6 0 -13.2033
410 4 40 40 1.6 -13.1301
443 1 41.6 41.6 0 -11.693
412 2 43.2 40 1.6 -9.64119
445 1 44.8 41.6 0 -11.7136
414 4 46.4 40 1.6 -13.2473
447 4 48 41.6 0 -13.2381
416 2 49.6 40 1.6 -9.76103
418 4 1.6 43.2 1.6 -13.2038
449 4 0 44.8 0 -13.1456
420 3 4.8 43.2 1.6 -11.1182
451 4 3.2 44.8 0 -13.1278
422 4 8 43.2 1.6 -13.3151
453 4 6.4 44.8 0 -13.115
424 2 11.2 43.2 1.6 -9.7892
455 4 9.6 44.8 0 -13.1632
426 4 14.4 43.2 1.6 -13.1163
457 4 12.8 44.8 0 -13.2008
428 2 17.6 43.2 1.6 -9.76726
459 4 16 44.8 0 -13.1619
430 4 20.8 43.2 1.6 -13.2091
461 4 19.2 44.8 0 -13.1907
432 4 24 43.2 1.6 -13.2258
463 4 22.4 44.8 0 -13.2574
465 4 25.6 44.8 0 -13.1295
434 1 27.2 43.2 1.6 -11.6449
467 4 28.8 44.8 0 -13.1096
436 1 30.4 43.2 1.6 -11.7356
469 2 32 44.8 0 -9.72788
438 1 33.6 43.2 1.6 -11.7249
471 4 35.2 44.8 0 -13.0771
440 4 36.8 43.2 1.6 -13.1323
473 4 38.4 44.8 0 -13.1819
442 3 40 43.2 1.6 -11.1509
475 1 41.6 44.8 0 -11.841
444 3 43.2 43.2 1.6 -11.2402
477 1 44.8 44.8 0 -11.7972
446 3 46.4 43.2 1.6 -11.1951
479 1 48 44.8 0 -11.7111
448 3 49.6 43.2 1.6 -11.2274
450 2 1.6 46.4 1.6 -9.59521
481 1 0 48 0 -11.7314
452 4 4.8 46.4 1.6 -13.1315
483 4 3.2 48 0 -13.2049
454 4 8 46.4 1.6 -13.0893
485 4 6.4 48 0 -13.1963
456 3 11.2 46.4 1.6 -11.1872
487 1 9.6 48 0 -11.6649
458 2 14.4 46.4 1.6 -9.78541
489 1 12.8 48 0 -11.75
460 3 17.6 46.4 1.6 -11.1481
491 4 16 48 0 -13.3217
462 3 20.8 46.4 1.6 -11.2175
493 4 19.2 48 0 -13.2797
464 2 24 46.4 1.6 -9.81831
495 4 22.4 48 0 -13.3732
497 4 25.6 48 0 -13.3125
466 1 27.2 46.4 1.6 -11.6382
499 3 28.8 48 0 -11.2601
468 1 30.4 46.4 1.6 -11.766
501 3 32 48 0 -11.1609
470 1 33.6 46.4 1.6 -11.7137
503 3 35.2 48 0 -11.1154
472 1 36.8 46.4 1.6 -11.6152
505 4 38.4 48 0 -13.2764
474 2 40 46.4 1.6 -9.72946
507 1 41.6 48 0 -11.7021
476 3 43.2 46.4 1.6 -11.0808
509 1 44.8 48 0 -11.7279
478 3 46.4 46.4 1.6 -11.206
511 1 48 48 0 -11.7042
480 3 49.6 46.4 1.6 -11.1654
482 3 1.6 49.6 1.6 -11.2379
484 2 4.8 49.6 1.6 -9.78145
486 3 8 49.6 1.6 -11.2267
488 4 11.2 49.6 1.6 -13.197
490 3 14.4 49.6 1.6 -11.0617
492 4 17.6 49.6 1.6 -13.2361
494 3 20.8 49.6 1.6 -11.1509
496 3 24 49.6 1.6 -11.2998
498 4 27.2 49.6 1.6 -13.2486
500 1 30.4 49.6 1.6 -11.7089
502 1 33.6 49.6 1.6 -11.7284
504 4 36.8 49.6 1.6 -13.249
506 3 40 49.6 1.6 -10.9718
508 4 43.2 49.6 1.6 -13.1968
510 3 46.4 49.6 1.6 -11.195
512 3 49.6 49.6 1.6 -11.2013
513 4 0 0 3.2 -13.2916
514 4 1.6 1.6 4.8 -13.2014
515 1 3.2 0 3.2 -11.7839
516 3 4.8 1.6 4.8 -11.296
517 1 6.4 0 3.2 -11.8682
518 3 8 1.6 4.8 -11.3294
519 4 9.6 0 3.2 -13.3253
520 2 11.2 1.6 4.8 -9.76624
521 4 12.8 0 3.2 -13.163
522 4 14.4 1.6 4.8 -13.0351
523 1 16 0 3.2 -11.6383
524 3 17.6 1.6 4.8 -11.1252
525 1 19.2 0 3.2 -11.7242
526 3 20.8 1.6 4.8 -11.1192
527 1 22.4 0 3.2 -11.7893
528 2 24 1.6 4.8 -9.72608
529 1 25.6 0 3.2 -11.6616
530 4 27.2 1.6 4.8 -13.1778
531 4 28.8 0 3.2 -13.1525
532 2 30.4 1.6 4.8 -9.70662
533 4 32 0 3.2 -13.0209
534 3 33.6 1.6 4.8 -11.1274
535 2 35.2 0 3.2 -9.74217
536 4 36.8 1.6 4.8 -13.2286
537 4 38.4 0 3.2 -13.1325
538 3 40 1.6 4.8 -11.0203
539 1 41.6 0 3.2 -11.745
540 3 43.2 1.6 4.8 -11.2675
541 4 44.8 0 3.2 -13.3539
542 3 46.4 1.6 4.8 -11.1934
543 1 48 0 3.2 -11.8303
544 3 49.6 1.6 4.8 -11.1615
545 1 0 3.2 3.2 -11.7396
546 3 1.6 4.8 4.8 -11.1107
547 4 3.2 3.2 3.2 -13.251
548 2 4.8 4.8 4.8 -9.72493
549 4 6.4 3.2 3.2 -13.2555
550 4 8 4.8 4.8 -13.0577
551 4 9.6 3.2 3.2 -13.1888
552 3 11.2 4.8 4.8 -11.1577
553 4 12.8 3.2 3.2 -13.2134
554 3 14.4 4.8 4.8 -11.2374
555 1 16 3.2 3.2 -11.7318
556 3 17.6 4.8 4.8 -11.2411
557 1 19.2 3.2 3.2 -11.8415
558 3 20.8 4.8 4.8 -11.2026
559 1 22.4 3.2 3.2 -11.7516
560 2 24 4.8 4.8 -9.66737
561 1 25.6 3.2 3.2 -11.6496
562 3 27.2 4.8 4.8 -11.1415
563 4 28.8 3.2 3.2 -13.084
564 4 30.4 4.8 4.8 -13.2772
565 4 32 3.2 3.2 -13.179
566 3 33.6 4.8 4.8 -11.142
567 2 35.2 3.2 3.2 -9.6851
568 2 36.8 4.8 4.8 -9.7087
569 4 38.4 3.2 3.2 -13.1728
570 4 40 4.8 4.8 -13.0903
571 1 41.6 3.2 3.2 -11.6349
572 2 43.2 4.8 4.8 -9.63685
573 1 44.8 3.2 3.2 -11.737
574 4 46.4 4.8 4.8 -13.1021
575 1 48 3.2 3.2 -11.7818
576 3 49.6 4.8 4.8 -11.0779
577 1 0 6.4 3.2 -11.6749
578 3 1.6 8 4.8 -11.143
579 1 3.2 6.4 3.2 -11.668
580 2 4.8 8 4.8 -9.72921
581 1 6.4 6.4 3.2 -11.5657
582 2 8 8 4.8 -9.66403
583 1 9.6 6.4 3.2 -11.6592
584 3 11.2 8 4.8 -11.2026
585 1 12.8 6.4 3.2 -11.7614
586 3 14.4 8 4.8 -11.1601
587 1 16 6.4 3.2 -11.7538
588 2 17.6 8 4.8 -9.7206
589 1 19.2 6.4 3.2 -11.7803
590 3 20.8 8 4.8 -11.0739
591 1 22.4 6.4 3.2 -11.7372
592 4 24 8 4.8 -13.12
593 1 25.6 6.4 3.2 -11.7028
594 3 27.2 8 4.8 -11.193
595 4 28.8 6.4 3.2 -13.2317
596 3 30.4 8 4.8 -11.1923
597 4 32 6.4 3.2 -13.1294
598 2 33.6 8 4.8 -9.62618
599 1 35.2 6.4 3.2 -11.6351
600 4 36.8 8 4.8 -13.115
601 2 38.4 6.4 3.2 -9.70098
602 2 40 8 4.8 -9.76623
603 1 41.6 6.4 3.2 -11.6447
604 3 43.2 8 4.8 -11.2338
605 4 44.8 6.4 3.2 -13.2118
606 3 46.4 8 4.8 -11.1957
607 4 48 6.4 3.2 -13.2718
608 4 49.6 8 4.8 -13.1236
609 4 0 9.6 3.2 -13.2127
610 4 1.6 11.2 4.8 -13.1894
611 4 3.2 9.6 3.2 -13.2971
612 3 4.8 11.2 4.8 -11.1822
613 4 6.4 9.6 3.2 -13.249
614 4 8 11.2 4.8 -13.1183
615 1 9.6 9.6 3.2 -11.7659
616 3 11.2 11.2 4.8 -11.2337
617 1 12.8 9.6 3.2 -11.8238
618 3 14.4 11.2 4.8 -11.2706
619 4 16 9.6 3.2 -13.2231
620 2 17.6 11.2 4.8 -9.72052
621 1 19.2 9.6 3.2 -11.7362
622 4 20.8 11.2 4.8 -13.1246
623 4 22.4 9.6 3.2 -13.2621
624 4 24 11.2 4.8 -13.0759
625 1 25.6 9.6 3.2 -11.7477
626 3 27.2 11.2 4.8 -11.1632
627 1 28.8 9.6 3.2 -11.8144
628 3 30.4 11.2 4.8 -11.2037
629 1 32 9.6 3.2 -11.6968
630 4 33.6 11.2 4.8 -13.0628
631 4 35.2 9.6 3.2 -13.1875
632 3 36.8 11.2 4.8 -11.115
633 4 38.4 9.6 3.2 -13.2321
634 3 40 11.2 4.8 -11.1592
635 1 41.6 9.6 3.2 -11.7116
636 3 43.2 11.2 4.8 -11.2411
637 1 44.8 9.6 3.2 -11.7488
638 3 46.4 11.2 4.8 -11.0769
639 4 48 9.6 3.2 -13.2274
640 2 49.6 11.2 4.8 -9.72526
641 1 0 12.8 3.2 -11.796
642 3 1.6 14.4 4.8 -11.2378
643 4 3.2 12.8 3.2 -13.3364
644 3 4.8 14.4 4.8 -11.1944
645 1 6.4 12.8 3.2 -11.6928
646 4 8 14.4 4.8 -12.9804
647 1 9.6 12.8 3.2 -11.653
648 2 11.2 14.4 4.8 -9.78469
649 4 12.8 12.8 3.2 -13.3383
650 3 14.4 14.4 4.8 -11.2708
651 1 16 12.8 3.2 -11.8415
652 3 17.6 14.4 4.8 -11.1197
653 1 19.2 12.8 3.2 -11.7352
654 4 20.8 14.4 4.8 -13.1612
655 4 22.4 12.8 3.2 -13.243
656 3 24 14.4 4.8 -11.1396
657 4 25.6 12.8 3.2 -13.3123
658 3 27.2 14.4 4.8 -11.1547
659 1 28.8 12.8 3.2 -11.8574
660 3 30.4 14.4 4.8 -11.2007
661 4 32 12.8 3.2 -13.251
662 2 33.6 14.4 4.8 -9.752
663 1 35.2 12.8 3.2 -11.7381
664 3 36.8 14.4 4.8 -11.2424
665 1 38.4 12.8 3.2 -11.6906
666 3 40 14.4 4.8 -11.1262
667 1 41.6 12.8 3.2 -11.5993
668 3 43.2 14.4 4.8 -10.9827
669 1 44.8 12.8 3.2 -11.6294
670 4 46.4 14.4 4.8 -13.1496
671 1 48 12.8 3.2 -11.7194
672 3 49.6 14.4 4.8 -11.1196
673 4 0 16 3.2 -13.337
674 3 1.6 17.6 4.8 -11.1051
675 1 3.2 16 3.2 -11.7914
676 4 4.8 17.6 4.8 -13.1311
677 1 6.4 16 3.2 -11.6595
678 3 8 17.6 4.8 -11.1007
679 1 9.6 16 3.2 -11.6837
680 2 11.2 17.6 4.8 -9.76351
681 1 12.8 16 3.2 -11.8136
682 3 14.4 17.6 4.8 -11.2293
683 1 16 16 3.2 -11.8554
684 3 17.6 17.6 4.8 -11.1556
685 1 19.2 16 3.2 -11.7605
686 2 20.8 17.6 4.8 -9.7009
687 1 22.4 16 3.2 -11.6783
688 4 24 17.6 4.8 -13.164
689 4 25.6 16 3.2 -13.1973
690 4 27.2 17.6 4.8 -13.2137
691 1 28.8 16 3.2 -11.7814
692 3 30.4 17.6 4.8 -11.2261
693 1 32 16 3.2 -11.7703
694 3 33.6 17.6 4.8 -11.301
695 4 35.2 16 3.2 -13.2509
696 3 36.8 17.6 4.8 -11.2012
697 1 38.4 16 3.2 -11.731
698 3 40 17.6 4.8 -11.1203
699 1 41.6 16 3.2 -11.6018
700 4 43.2 17.6 4.8 -13.1482
701 1 44.8 16 3.2 -11.6454
702 3 46.4 17.6 4.8 -11.0382
703 1 48 16 3.2 -11.7625
704 4 49.6 17.6 4.8 -13.2402
705 4 0 19.2 3.2 -13.3101
706 4 1.6 20.8 4.8 -13.2251
707 4 3.2 19.2 3.2 -13.1627
708 4 4.8 20.8 4.8 -13.1546
709 4 6.4 19.2 3.2 -13.271
710 4 8 20.8 4.8 -13.3002
711 4 9.6 19.2 3.2 -13.2966
712 4 11.2 20.8 4.8 -13.1972
713 1 12.8 19.2 3.2 -11.7309
714 4 14.4 20.8 4.8 -13.2073
715 1 16 19.2 3.2 -11.6981
716 1 17.6 20.8 4.8 -11.6304
717 4 19.2 19.2 3.2 -13.1701
718 4 20.8 20.8 4.8 -13.113
719 4 22.4 19.2 3.2 -13.112
720 4 24 20.8 4.8 -13.1928
721 4 25.6 19.2 3.2 -13.2093
722 4 27.2 20.8 4.8 -13.144
723 4 28.8 19.2 3.2 -13.2053
724 2 30.4 20.8 4.8 -9.68716
725 1 32 19.2 3.2 -11.6853
726 3 33.6 20.8 4.8 -11.1966
727 1 35.2 19.2 3.2 -11.7004
728 3 36.8 20.8 4.8 -11.1976
729 1 38.4 19.2 3.2 -11.6861
730 3 40 20.8 4.8 -11.2784
731 1 41.6 19.2 3.2 -11.7411
732 3 43.2 20.8 4.8 -11.1255
733 1 44.8 19.2 3.2 -11.7177
734 3 46.4 20.8 4.8 -11.1668
735 1 48 19.2 3.2 -11.7341
736 3 49.6 20.8 4.8 -11.0761
737 1 0 22.4 3.2 -11.6982
738 4 1.6 24 4.8 -13.145
739 4 3.2 22.4 3.2 -13.2402
740 4 4.8 24 4.8 -13.2301
741 3 6.4 22.4 3.2 -11.1163
742 1 8 24 4.8 -11.553
743 4 9.6 22.4 3.2 -13.2625
744 1 11.2 24 4.8 -11.6716
745 2 12.8 22.4 3.2 -9.76254
746 1 14.4 24 4.8 -11.7868
747 2 16 22.4 3.2 -9.73236
748 1 17.6 24 4.8 -11.7074
749 4 19.2 22.4 3.2 -13.0073
750 1 20.8 24 4.8 -11.6619
751 4 22.4 22.4 3.2 -13.0649
752 4 24 24 4.8 -13.2068
753 3 25.6 22.4 3.2 -11.1954
754 4 27.2 24 4.8 -13.1598
755 1 28.8 22.4 3.2 -11.6065
756 4 30.4 24 4.8 -13.1054
757 1 32 22.4 3.2 -11.6011
758 3 33.6 24 4.8 -11.1915
759 1 35.2 22.4 3.2 -11.7531
760 3 36.8 24 4.8 -11.3089
761 4 38.4 22.4 3.2 -13.3124
762 3 40 24 4.8 -11.0713
763 1 41.6 22.4 3.2 -11.8258
764 2 43.2 24 4.8 -9.74275
765 1 44.8 22.4 3.2 -11.7234
766 3 46.4 24 4.8 -11.0764
767 1 48 22.4 3.2 -11.6942
768 4 49.6 24 4.8 -13.163
769 4 0 25.6 3.2 -13.1979
771 4 3.2 25.6 3.2 -13.2616
773 4 6.4 25.6 3.2 -13.1195
775 2 9.6 25.6 3.2 -9.61931
777 3 12.8 25.6 3.2 -11.1626
779 3 16 25.6 3.2 -11.2355
781 3 19.2 25.6 3.2 -11.0766
783 4 22.4 25.6 3.2 -13.0747
785 2 25.6 25.6 3.2 -9.76902
787 4 28.8 25.6 3.2 -13.186
789 4 32 25.6 3.2 -13.3081
791 4 35.2 25.6 3.2 -13.33
793 1 38.4 25.6 3.2 -11.8007
795 1 41.6 25.6 3.2 -11.7537
797 4 44.8 25.6 3.2 -13.3028
799 4 48 25.6 3.2 -13.3265
770 4 1.6 27.2 4.8 -13.2063
801 4 0 28.8 3.2 -13.2324
772 4 4.8 27.2 4.8 -13.2701
803 3 3.2 28.8 3.2 -11.1424
774 1 8 27.2 4.8 -11.6769
805 3 6.4 28.8 3.2 -11.1909
776 1 11.2 27.2 4.8 -11.781
807 3 9.6 28.8 3.2 -11.1999
778 1 14.4 27.2 4.8 -11.8122
809 3 12.8 28.8 3.2 -11.2426
780 1 17.6 27.2 4.8 -11.7398
811 3 16 28.8 3.2 -11.2426
782 1 20.8 27.2 4.8 -11.6554
813 3 19.2 28.8 3.2 -11.082
784 1 24 27.2 4.8 -11.6677
815 2 22.4 28.8 3.2 -9.66572
817 3 25.6 28.8 3.2 -11.0942
786 4 27.2 27.2 4.8 -13.2331
819 4 28.8 28.8 3.2 -13.2996
788 4 30.4 27.2 4.8 -13.2965
821 4 32 28.8 3.2 -13.3413
790 3 33.6 27.2 4.8 -11.3221
823 4 35.2 28.8 3.2 -13.376
792 3 36.8 27.2 4.8 -11.1849
825 4 38.4 28.8 3.2 -13.2465
794 4 40 27.2 4.8 -13.0752
827 4 41.6 28.8 3.2 -13.0904
796 2 43.2 27.2 4.8 -9.69135
829 4 44.8 28.8 3.2 -13.2106
798 3 46.4 27.2 4.8 -11.2638
831 4 48 28.8 3.2 -13.312
800 3 49.6 27.2 4.8 -11.1391
802 4 1.6 30.4 4.8 -13.0823
833 4 0 32 3.2 -13.1595
804 4 4.8 30.4 4.8 -13.1881
835 4 3.2 32 3.2 -13.0725
806 4 8 30.4 4.8 -13.3306
837 4 6.4 32 3.2 -13.1381
808 1 11.2 30.4 4.8 -11.8554
839 3 9.6 32 3.2 -11.237
810 1 14.4 30.4 4.8 -11.8555
841 3 12.8 32 3.2 -11.1993
812 1 17.6 30.4 4.8 -11.7345
843 3 16 32 3.2 -11.2354
814 1 20.8 30.4 4.8 -11.6782
845 2 19.2 32 3.2 -9.69979
816 4 24 30.4 4.8 -13.2731
847 4 22.4 32 3.2 -13.2163
849 4 25.6 32 3.2 -13.2637
818 4 27.2 30.4 4.8 -13.2079
851 4 28.8 32 3.2 -13.1823
820 4 30.4 30.4 4.8 -13.2638
853 4 32 32 3.2 -13.2586
822 2 33.6 30.4 4.8 -9.7645
855 4 35.2 32 3.2 -13.1391
824 4 36.8 30.4 4.8 -13.2633
857 4 38.4 32 3.2 -13.1158
826 4 40 30.4 4.8 -13.034
859 1 41.6 32 3.2 -11.5085
828 4 43.2 30.4 4.8 -13.0121
861 4 44.8 32 3.2 -13.0991
830 4 46.4 30.4 4.8 -13.1716
863 4 48 32 3.2 -13.2748
832 3 49.6 30.4 4.8 -11.157
834 4 1.6 33.6 4.8 -13.0834
865 4 0 35.2 3.2 -13.2171
836 2 4.8 33.6 4.8 -9.60635
867 4 3.2 35.2 3.2 -13.1461
838 4 8 33.6 4.8 -13.1954
869 4 6.4 35.2 3.2 -13.1757
840 1 11.2 33.6 4.8 -11.7176
871 2 9.6 35.2 3.2 -9.73787
842 4 14.4 33.6 4.8 -13.2583
873 4 12.8 35.2 3.2 -13.1422
844 4 17.6 33.6 4.8 -13.1893
875 4 16 35.2 3.2 -13.1544
846 4 20.8 33.6 4.8 -13.2684
877 4 19.2 35.2 3.2 -13.2103
848 2 24 33.6 4.8 -9.78965
879 4 22.4 35.2 3.2 -13.3446
881 4 25.6 35.2 3.2 -13.2628
850 1 27.2 33.6 4.8 -11.6725
883 2 28.8 35.2 3.2 -9.76627
852 1 30.4 33.6 4.8 -11.7231
885 3 32 35.2 3.2 -11.2259
854 4 33.6 33.6 4.8 -13.177
887 4 35.2 35.2 3.2 -13.2021
856 4 36.8 33.6 4.8 -13.1692
889 3 38.4 35.2 3.2 -11.1123
858 1 40 33.6 4.8 -11.6865
891 3 41.6 35.2 3.2 -11.1141
860 4 43.2 33.6 4.8 -13.1942
893 2 44.8 35.2 3.2 -9.79364
862 3 46.4 33.6 4.8 -11.1809
895 4 48 35.2 3.2 -13.2251
864 3 49.6 33.6 4.8 -11.1883
866 2 1.6 36.8 4.8 -9.67151
897 4 0 38.4 3.2 -13.2011
868 4 4.8 36.8 4.8 -13.0431
899 2 3.2 38.4 3.2 -9.67246
870 4 8 36.8 4.8 -13.1718
901 4 6.4 38.4 3.2 -13.1475
872 2 11.2 36.8 4.8 -9.67708
903 4 9.6 38.4 3.2 -13.294
874 4 14.4 36.8 4.8 -13.0991
905 4 12.8 38.4 3.2 -13.1528
876 4 17.6 36.8 4.8 -13.2107
907 4 16 38.4 3.2 -13.2543
878 3 20.8 36.8 4.8 -11.175
909 1 19.2 38.4 3.2 -11.7124
880 2 24 36.8 4.8 -9.79091
911 4 22.4 38.4 3.2 -13.2626
913 4 25.6 38.4 3.2 -13.2621
882 4 27.2 36.8 4.8 -13.1723
915 3 28.8 38.4 3.2 -11.1899
884 1 30.4 36.8 4.8 -11.8321
917 3 32 38.4 3.2 -11.2387
886 1 33.6 36.8 4.8 -11.7907
919 3 35.2 38.4 3.2 -11.2289
888 4 36.8 36.8 4.8 -13.3024
921 3 38.4 38.4 3.2 -11.1866
890 1 40 36.8 4.8 -11.714
923 4 41.6 38.4 3.2 -13.0586
892 4 43.2 36.8 4.8 -13.0728
925 4 44.8 38.4 3.2 -13.1033
894 4 46.4 36.8 4.8 -13.2147
927 4 48 38.4 3.2 -13.1942
896 3 49.6 36.8 4.8 -11.1416
898 4 1.6 40 4.8 -13.0212
929 4 0 41.6 3.2 -13.1626
900 4 4.8 40 4.8 -13.0494
931 4 3.2 41.6 3.2 -13.2107
902 3 8 40 4.8 -11.16
933 4 6.4 41.6 3.2 -13.3196
904 4 11.2 40 4.8 -13.2712
935 3 9.6 41.6 3.2 -11.262
906 3 14.4 40 4.8 -11.1404
937 4 12.8 41.6 3.2 -13.3252
908 4 17.6 40 4.8 -13.2011
939 4 16 41.6 3.2 -13.2945
910 4 20.8 40 4.8 -13.2012
941 4 19.2 41.6 3.2 -13.2666
912 4 24 40 4.8 -13.252
943 2 22.4 41.6 3.2 -9.79314
945 3 25.6 41.6 3.2 -11.1825
914 4 27.2 40 4.8 -13.2337
947 3 28.8 41.6 3.2 -11.2375
916 1 30.4 40 4.8 -11.7983
949 3 32 41.6 3.2 -11.2054
918 1 33.6 40 4.8 -11.7505
951 2 35.2 41.6 3.2 -9.68694
920 1 36.8 40 4.8 -11.7193
953 4 38.4 41.6 3.2 -13.1544
922 1 40 40 4.8 -11.6335
955 4 41.6 41.6 3.2 -13.164
924 4 43.2 40 4.8 -13.0967
957 4 44.8 41.6 3.2 -13.2662
926 2 46.4 40 4.8 -9.70602
959 4 48 41.6 3.2 -13.2948
928 4 49.6 40 4.8 -13.1609
930 3 1.6 43.2 4.8 -10.9882
961 1 0 44.8 3.2 -11.721
932 2 4.8 43.2 4.8 -9.74973
963 1 3.2 44.8 3.2 -11.6651
934 3 8 43.2 4.8 -11.2813
965 4 6.4 44.8 3.2 -13.2166
936 3 11.2 43.2 4.8 -11.2476
967 4 9.6 44.8 3.2 -13.3174
938 2 14.4 43.2 4.8 -9.72752
969 1 12.8 44.8 3.2 -11.6868
940 3 17.6 43.2 4.8 -11.2236
971 1 16 44.8 3.2 -11.6659
942 3 20.8 43.2 4.8 -11.1306
973 1 19.2 44.8 3.2 -11.73
944 4 24 43.2 4.8 -13.3029
975 4 22.4 44.8 3.2 -13.2373
977 2 25.6 44.8 3.2 -9.72894
946 1 27.2 43.2 4.8 -11.7868
979 3 28.8 44.8 3.2 -11.1244
948 1 30.4 43.2 4.8 -11.8122
981 3 32 44.8 3.2 -11.166
950 1 33.6 43.2 4.8 -11.7181
983 2 35.2 44.8 3.2 -9.6284
952 1 36.8 43.2 4.8 -11.6122
985 4 38.4 44.8 3.2 -13.0377
954 4 40 43.2 4.8 -13.0991
987 1 41.6 44.8 3.2 -11.68
956 2 43.2 43.2 4.8 -9.7327
989 1 44.8 44.8 3.2 -11.7654
958 3 46.4 43.2 4.8 -11.1941
991 1 48 44.8 3.2 -11.8256
960 3 49.6 43.2 4.8 -11.2394
962 4 1.6 46.4 4.8 -13.147
993 1 0 48 3.2 -11.7531
964 3 4.8 46.4 4.8 -11.0209
995 1 3.2 48 3.2 -11.7079
966 4 8 46.4 4.8 -13.2402
997 4 6.4 48 3.2 -13.2667
968 3 11.2 46.4 4.8 -11.2641
999 4 9.6 48 3.2 -13.3201
970 4 14.4 46.4 4.8 -12.9921
1001 4 12.8 48 3.2 -13.2748
972 2 17.6 46.4 4.8 -9.76461
1003 4 16 48 3.2 -13.1879
974 4 20.8 46.4 4.8 -13.1617
1005 1 19.2 48 3.2 -11.7005
976 4 24 46.4 4.8 -13.2566
1007 4 22.4 48 3.2 -13.2575
1009 4 25.6 48 3.2 -13.2695
978 1 27.2 46.4 4.8 -11.782
1011 3 28.8 48 3.2 -11.164
980 1 30.4 46.4 4.8 -11.7978
1013 3 32 48 3.2 -11.0818
982 1 33.6 46.4 4.8 -11.7387
1015 3 35.2 48 3.2 -11.1993
984 4 36.8 46.4 4.8 -13.1667
1017 4 38.4 48 3.2 -13.2002
986 4 40 46.4 4.8 -13.034
1019 1 41.6 48 3.2 -11.6408
988 2 43.2 46.4 4.8 -9.63227
1021 1 44.8 48 3.2 -11.755
990 2 46.4 46.4 4.8 -9.69017
1023 1 48 48 3.2 -11.8017
992 3 49.6 46.4 4.8 -11.16
994 3 1.6 49.6 4.8 -11.1127
996 3 4.8 49.6 4.8 -11.3363
998 3 8 49.6 4.8 -11.2941
1000 3 11.2 49.6 4.8 -11.2136
1002 4 14.4 49.6 4.8 -13.1598
1004 3 17.6 49.6 4.8 -11.0346
1006 4 20.8 49.6 4.8 -13.2048
1008 3 24 49.6 4.8 -11.1739
1010 4 27.2 49.6 4.8 -13.2733
1012 1 30.4 49.6 4.8 -11.6594
1014 1 33.6 49.6 4.8 -11.6628
1016 4 36.8 49.6 4.8 -13.222
1018 4 40 49.6 4.8 -13.2092
1020 3 43.2 49.6 4.8 -11.1424
1022 3 46.4 49.6 4.8 -11.2646
1024 2 49.6 49.6 4.8 -9.81287
1025 4 0 0 6.4 -13.1725
1026 4 1.6 1.6 8 -13.0448
1027 1 3.2 0 6.4 -11.7374
1028 3 4.8 1.6 8 -11.2131
1029 4 6.4 0 6.4 -13.3757
1030 3 8 1.6 8 -11.2108
1031 1 9.6 0 6.4 -11.7256
1032 4 11.2 1.6 8 -13.2004
1033 4 12.8 0 6.4 -13.1765
1034 3 14.4 1.6 8 -11.1548
1035 1 16 0 6.4 -11.7041
1036 2 17.6 1.6 8 -9.69169
1037 1 19.2 0 6.4 -11.7453
1038 4 20.8 1.6 8 -13.19
1039 4 22.4 0 6.4 -13.2214
1040 4 24 1.6 8 -13.1794
1041 4 25.6 0 6.4 -13.2205
1042 4 27.2 1.6 8 -13.2783
1043 3 28.8 0 6.4 -11.2103
1044 4 30.4 1.6 8 -13.3651
1045 4 32 0 6.4 -13.1763
1046 4 33.6 1.6 8 -13.2315
1047 4 35.2 0 6.4 -13.282
1048 3 36.8 1.6 8 -11.1327
1049 4 38.4 0 6.4 -13.1766
1050 4 40 1.6 8 -13.2139
1051 4 41.6 0 6.4 -13.2389
1052 4 43.2 1.6 8 -13.2365
1053 4 44.8 0 6.4 -13.2816
1054 2 46.4 1.6 8 -9.732
1055 1 48 0 6.4 -11.7608
1056 3 49.6 1.6 8 -11.0666
1057 1 0 3.2 6.4 -11.6665
1058 4 1.6 4.8 8 -13.1822
1059 4 3.2 3.2 6.4 -13.195
1060 4 4.8 4.8 8 -13.1829
1061 4 6.4 3.2 6.4 -13.2997
1062 2 8 4.8 8 -9.73359
1063 4 9.6 3.2 6.4 -13.2735
1064 3 11.2 4.8 8 -11.1577
1065 1 12.8 3.2 6.4 -11.762
1066 3 14.4 4.8 8 -11.1988
1067 1 16 3.2 6.4 -11.7662
1068 3 17.6 4.8 8 -11.0748
1069 1 19.2 3.2 6.4 -11.723
1070 4 20.8 4.8 8 -13.1963
1071 4 22.4 3.2 6.4 -13.2448
1072 4 24 4.8 8 -13.2849
1073 4 25.6 3.2 6.4 -13.1994
1074 4 27.2 4.8 8 -13.2859
1075 4 28.8 3.2 6.4 -13.341
1076 3 30.4 4.8 8 -11.1611
1077 4 32 3.2 6.4 -13.2334
1078 4 33.6 4.8 8 -13.1691
1079 1 35.2 3.2 6.4 -11.7124
1080 3 36.8 4.8 8 -11.1383
1081 1 38.4 3.2 6.4 -11.6599
1082 4 40 4.8 8 -13.2164
1083 4 41.6 3.2 6.4 -13.2083
1084 2 43.2 4.8 8 -9.70262
1085 1 44.8 3.2 6.4 -11.6468
1086 2 46.4 4.8 8 -9.59901
1087 1 48 3.2 6.4 -11.6801
1088 4 49.6 4.8 8 -13.1265
1089 4 0 6.4 6.4 -13.2163
1090 4 1.6 8 8 -13.2201
1091 4 3.2 6.4 6.4 -13.2378
1092 4 4.8 8 8 -13.1481
1093 1 6.4 6.4 6.4 -11.6063
1094 3 8 8 8 -11.115
1095 1 9.6 6.4 6.4 -11.7057
1096 2 11.2 8 8 -9.71453
1097 1 12.8 6.4 6.4 -11.7832
1098 4 14.4 8 8 -13.065
1099 4 16 6.4 6.4 -13.253
1100 2 17.6 8 8 -9.59363
1101 1 19.2 6.4 6.4 -11.6866
1102 4 20.8 8 8 -13.1335
1103 4 22.4 6.4 6.4 -13.2476
1104 2 24 8 8 -9.66514