ITEM: TIMESTEP
0
ITEM: NUMBER OF ATOMS
8192
ITEM: BOX BOUNDS pp pp pp
0.0000000000000000e+00 5.1200000000000003e+01
0.0000000000000000e+00 5.1200000000000003e+01
0.0000000000000000e+00 5.1200000000000003e+01
ITEM: ATOMS id type x y z c_eng
1 1 0 0 0 -11.8414
2 2 1.6 1.6 1.6 -9.75284
3 1 3.2 0 0 -11.768
4 2 4.8 1.6 1.6 -9.69141
5 1 6.4 0 0 -11.7657
6 2 8 1.6 1.6 -9.7145
7 1 9.6 0 0 -11.7538
8 3 11.2 1.6 1.6 -11.0824
9 1 12.8 0 0 -11.7805
10 3 14.4 1.6 1.6 -11.2054
11 1 16 0 0 -11.6866
12 2 17.6 1.6 1.6 -9.65046
13 1 19.2 0 0 -11.6711
14 3 20.8 1.6 1.6 -11.2246
15 4 22.4 0 0 -13.297
16 4 24 1.6 1.6 -13.1237
17 4 25.6 0 0 -13.2109
18 4 27.2 1.6 1.6 -13.1572
19 4 28.8 0 0 -13.1946
20 1 30.4 1.6 1.6 -11.6627
21 3 32 0 0 -11.1871
22 4 33.6 1.6 1.6 -13.1664
23 4 35.2 0 0 -13.2352
24 3 36.8 1.6 1.6 -11.2534
25 4 38.4 0 0 -13.2244
26 4 40 1.6 1.6 -13.2392
27 1 41.6 0 0 -11.6817
28 2 43.2 1.6 1.6 -9.73198
29 1 44.8 0 0 -11.6685
30 3 46.4 1.6 1.6 -11.1099
31 1 48 0 0 -11.7581
32 3 49.6 1.6 1.6 -11.1936
33 1 0 3.2 0 -11.7734
34 3 1.6 4.8 1.6 -11.0814
35 1 3.2 3.2 0 -11.7503
36 3 4.8 4.8 1.6 -11.1599
37 1 6.4 3.2 0 -11.7961
38 3 8 4.8 1.6 -11.2751
39 1 9.6 3.2 0 -11.7537
40 3 11.2 4.8 1.6 -11.2432
41 1 12.8 3.2 0 -11.7805
42 3 14.4 4.8 1.6 -11.2042
43 1 16 3.2 0 -11.7467
44 3 17.6 4.8 1.6 -11.2403
45 1 19.2 3.2 0 -11.6886
46 3 20.8 4.8 1.6 -11.154
47 4 22.4 3.2 0 -13.1552
48 4 24 4.8 1.6 -13.1735
49 4 25.6 3.2 0 -13.1799
50 3 27.2 4.8 1.6 -11.0442
51 2 28.8 3.2 0 -9.73546
52 4 30.4 4.8 1.6 -13.153
53 2 32 3.2 0 -9.76853
54 2 33.6 4.8 1.6 -9.76773
55 1 35.2 3.2 0 -11.7173
56 3 36.8 4.8 1.6 -11.2201
57 4 38.4 3.2 0 -13.29
58 4 40 4.8 1.6 -13.0814
59 4 41.6 3.2 0 -13.1594
60 2 43.2 4.8 1.6 -9.69475
61 4 44.8 3.2 0 -13.2709
62 3 46.4 4.8 1.6 -11.1976
63 1 48 3.2 0 -11.734
64 4 49.6 4.8 1.6 -13.1473
65 1 0 6.4 0 -11.7537
66 3 1.6 8 1.6 -11.2029
67 1 3.2 6.4 0 -11.7857
68 2 4.8 8 1.6 -9.69561
69 4 6.4 6.4 0 -13.2484
70 3 8 8 1.6 -11.1207
71 1 9.6 6.4 0 -11.7642
72 3 11.2 8 1.6 -11.1657
73 1 12.8 6.4 0 -11.7145
74 2 14.4 8 1.6 -9.67758
75 1 16 6.4 0 -11.7336
76 3 17.6 8 1.6 -11.1194
77 1 19.2 6.4 0 -11.7591
78 2 20.8 8 1.6 -9.75869
79 4 22.4 6.4 0 -13.2136
80 3 24 8 1.6 -11.1054
81 4 25.6 6.4 0 -13.2015
82 4 27.2 8 1.6 -13.1709
83 4 28.8 6.4 0 -13.1873
84 4 30.4 8 1.6 -13.0569
85 2 32 6.4 0 -9.70384
86 2 33.6 8 1.6 -9.59763
87 4 35.2 6.4 0 -13.1617
88 4 36.8 8 1.6 -13.1138
89 4 38.4 6.4 0 -13.163
90 3 40 8 1.6 -11.0762
91 1 41.6 6.4 0 -11.6527
92 3 43.2 8 1.6 -11.1656
93 1 44.8 6.4 0 -11.8267
94 3 46.4 8 1.6 -11.3089
95 1 48 6.4 0 -11.7685
96 3 49.6 8 1.6 -11.1599
97 1 0 9.6 0 -11.7962
98 3 1.6 11.2 1.6 -11.2349
99 4 3.2 9.6 0 -13.2569
100 4 4.8 11.2 1.6 -13.1553
101 4 6.4 9.6 0 -13.2521
102 3 8 11.2 1.6 -11.2378
103 1 9.6 9.6 0 -11.749
104 3 11.2 11.2 1.6 -11.2037
105 1 12.8 9.6 0 -11.6756
106 3 14.4 11.2 1.6 -11.0838
107 1 16 9.6 0 -11.6968
108 3 17.6 11.2 1.6 -11.2786
109 4 19.2 9.6 0 -13.2789
110 3 20.8 11.2 1.6 -11.1214
111 1 22.4 9.6 0 -11.7147
112 3 24 11.2 1.6 -11.1956
113 4 25.6 9.6 0 -13.3032
114 2 27.2 11.2 1.6 -9.76577
115 4 28.8 9.6 0 -13.1531
116 2 30.4 11.2 1.6 -9.73572
117 4 32 9.6 0 -13.1956
118 4 33.6 11.2 1.6 -13.0608
119 1 35.2 9.6 0 -11.6044
120 2 36.8 11.2 1.6 -9.65112
121 4 38.4 9.6 0 -13.213
122 3 40 11.2 1.6 -11.0719
123 1 41.6 9.6 0 -11.7579
124 4 43.2 11.2 1.6 -13.157
125 4 44.8 9.6 0 -13.2724
126 3 46.4 11.2 1.6 -11.1591
127 4 48 9.6 0 -13.2722
128 3 49.6 11.2 1.6 -11.2397
129 4 0 12.8 0 -13.337
130 3 1.6 14.4 1.6 -11.2739
131 1 3.2 12.8 0 -11.7956
132 2 4.8 14.4 1.6 -9.71406
133 1 6.4 12.8 0 -11.7764
134 3 8 14.4 1.6 -11.1622
135 4 9.6 12.8 0 -13.282
136 2 11.2 14.4 1.6 -9.6639
137 1 12.8 12.8 0 -11.6644
138 4 14.4 14.4 1.6 -13.1106
139 1 16 12.8 0 -11.7343
140 3 17.6 14.4 1.6 -11.2378
141 1 19.2 12.8 0 -11.764
142 3 20.8 14.4 1.6 -11.1584
143 1 22.4 12.8 0 -11.6758
144 3 24 14.4 1.6 -11.1542
145 4 25.6 12.8 0 -13.2447
146 4 27.2 14.4 1.6 -13.0334
147 1 28.8 12.8 0 -11.7148
148 2 30.4 14.4 1.6 -9.62828
149 4 32 12.8 0 -13.2372
150 3 33.6 14.4 1.6 -11.1564
151 1 35.2 12.8 0 -11.7527
152 3 36.8 14.4 1.6 -11.166
153 1 38.4 12.8 0 -11.8277
154 2 40 14.4 1.6 -9.74347
155 4 41.6 12.8 0 -13.2953
156 3 43.2 14.4 1.6 -11.156
157 1 44.8 12.8 0 -11.7279
158 3 46.4 14.4 1.6 -11.1653
159 1 48 12.8 0 -11.7486
160 3 49.6 14.4 1.6 -11.2772
161 1 0 16 0 -11.8116
162 3 1.6 17.6 1.6 -11.1992
163 1 3.2 16 0 -11.7979
164 3 4.8 17.6 1.6 -11.2718
165 1 6.4 16 0 -11.7827
166 3 8 17.6 1.6 -11.1997
167 1 9.6 16 0 -11.7768
168 2 11.2 17.6 1.6 -9.78842
169 4 12.8 16 0 -13.207
170 3 14.4 17.6 1.6 -11.1072
171 1 16 16 0 -11.7254
172 3 17.6 17.6 1.6 -11.1849
173 4 19.2 16 0 -13.2902
174 4 20.8 17.6 1.6 -13.1576
175 4 22.4 16 0 -13.1372
176 4 24 17.6 1.6 -13.1516
177 1 25.6 16 0 -11.6615
178 2 27.2 17.6 1.6 -9.69407
179 1 28.8 16 0 -11.5696
180 2 30.4 17.6 1.6 -9.56097
181 1 32 16 0 -11.6485
182 2 33.6 17.6 1.6 -9.72156
183 1 35.2 16 0 -11.6711
184 3 36.8 17.6 1.6 -11.1216
185 1 38.4 16 0 -11.7818
186 3 40 17.6 1.6 -11.335
187 4 41.6 16 0 -13.3776
188 3 43.2 17.6 1.6 -11.3049
189 1 44.8 16 0 -11.8137
190 3 46.4 17.6 1.6 -11.2051
191 1 48 16 0 -11.7807
192 3 49.6 17.6 1.6 -11.1264
193 1 0 19.2 0 -11.7311
194 4 1.6 20.8 1.6 -13.284
195 4 3.2 19.2 0 -13.3181
196 3 4.8 20.8 1.6 -11.1383
197 1 6.4 19.2 0 -11.7457
198 2 8 20.8 1.6 -9.79171
199 4 9.6 19.2 0 -13.299
200 2 11.2 20.8 1.6 -9.76584
201 4 12.8 19.2 0 -13.2622
202 4 14.4 20.8 1.6 -13.1161
203 1 16 19.2 0 -11.6897
204 4 17.6 20.8 1.6 -13.1101
205 4 19.2 19.2 0 -13.1314
206 4 20.8 20.8 1.6 -13.1408
207 4 22.4 19.2 0 -13.1276
208 4 24 20.8 1.6 -13.221
209 4 25.6 19.2 0 -13.1992
210 3 27.2 20.8 1.6 -11.0981
211 1 28.8 19.2 0 -11.6338
212 4 30.4 20.8 1.6 -13.1655
213 4 32 19.2 0 -13.0825
214 2 33.6 20.8 1.6 -9.63677
215 1 35.2 19.2 0 -11.624
216 2 36.8 20.8 1.6 -9.72179
217 4 38.4 19.2 0 -13.2594
218 3 40 20.8 1.6 -11.2282
219 4 41.6 19.2 0 -13.336
220 3 43.2 20.8 1.6 -11.2708
221 1 44.8 19.2 0 -11.7534
222 3 46.4 20.8 1.6 -11.2026
223 1 48 19.2 0 -11.7508
224 3 49.6 20.8 1.6 -11.2002
225 4 0 22.4 0 -13.2525
226 4 1.6 24 1.6 -13.1387
227 4 3.2 22.4 0 -13.2067
228 4 4.8 24 1.6 -13.0964
229 4 6.4 22.4 0 -13.2035
230 1 8 24 1.6 -11.4901
231 4 9.6 22.4 0 -13.2243
232 4 11.2 24 1.6 -13.0815
233 4 12.8 22.4 0 -13.195
234 1 14.4 24 1.6 -11.615
235 4 16 22.4 0 -13.1227
236 1 17.6 24 1.6 -11.616
237 4 19.2 22.4 0 -13.0623
238 4 20.8 24 1.6 -13.259
239 4 22.4 22.4 0 -13.2016
240 4 24 24 1.6 -13.2605
241 4 25.6 22.4 0 -13.1781
242 2 27.2 24 1.6 -9.7946
243 4 28.8 22.4 0 -13.22
244 3 30.4 24 1.6 -11.289
245 4 32 22.4 0 -13.2225
246 3 33.6 24 1.6 -11.2999
247 4 35.2 22.4 0 -13.2088
248 3 36.8 24 1.6 -11.1607
249 1 38.4 22.4 0 -11.6887
250 3 40 24 1.6 -11.166
251 1 41.6 22.4 0 -11.7536
252 3 43.2 24 1.6 -11.164
253 4 44.8 22.4 0 -13.2578
254 4 46.4 24 1.6 -13.1464
255 1 48 22.4 0 -11.7831
256 3 49.6 24 1.6 -11.1566
257 1 0 25.6 0 -11.736
259 1 3.2 25.6 0 -11.604
261 4 6.4 25.6 0 -13.0271
263 4 9.6 25.6 0 -13.1431
265 3 12.8 25.6 0 -11.1508
267 3 16 25.6 0 -11.0357
269 2 19.2 25.6 0 -9.72722
271 3 22.4 25.6 0 -11.1868
273 2 25.6 25.6 0 -9.70753
275 4 28.8 25.6 0 -13.345
277 4 32 25.6 0 -13.347
279 4 35.2 25.6 0 -13.261
281 1 38.4 25.6 0 -11.7272
283 1 41.6 25.6 0 -11.7525
285 1 44.8 25.6 0 -11.7733
287 1 48 25.6 0 -11.7796
258 2 1.6 27.2 1.6 -9.73261
289 4 0 28.8 0 -13.2111
260 4 4.8 27.2 1.6 -13.0783
291 4 3.2 28.8 0 -13.0981
262 1 8 27.2 1.6 -11.5785
293 2 6.4 28.8 0 -9.70186
264 4 11.2 27.2 1.6 -13.2712
295 3 9.6 28.8 0 -11.1111
266 1 14.4 27.2 1.6 -11.7617
297 3 12.8 28.8 0 -11.2369
268 1 17.6 27.2 1.6 -11.6943
299 3 16 28.8 0 -11.1255
270 1 20.8 27.2 1.6 -11.7037
301 2 19.2 28.8 0 -9.62012
272 1 24 27.2 1.6 -11.6842
303 4 22.4 28.8 0 -13.1759
305 4 25.6 28.8 0 -13.1436
274 4 27.2 27.2 1.6 -13.1497
307 2 28.8 28.8 0 -9.76325
276 4 30.4 27.2 1.6 -13.2863
309 4 32 28.8 0 -13.2287
278 3 33.6 27.2 1.6 -11.2884
311 4 35.2 28.8 0 -13.286
280 3 36.8 27.2 1.6 -11.2305
313 1 38.4 28.8 0 -11.7191
282 2 40 27.2 1.6 -9.68536
315 1 41.6 28.8 0 -11.6451
284 3 43.2 27.2 1.6 -11.0821
317 1 44.8 28.8 0 -11.7049
286 3 46.4 27.2 1.6 -11.123
319 1 48 28.8 0 -11.7239
288 3 49.6 27.2 1.6 -11.3058
290 1 1.6 30.4 1.6 -11.5779
321 3 0 32 0 -11.1093
292 1 4.8 30.4 1.6 -11.6551
323 4 3.2 32 0 -12.9916
294 4 8 30.4 1.6 -13.2729
325 3 6.4 32 0 -11.1079
296 1 11.2 30.4 1.6 -11.8279
327 4 9.6 32 0 -13.1161
298 1 14.4 30.4 1.6 -11.8552
329 3 12.8 32 0 -11.1897
300 1 17.6 30.4 1.6 -11.7365
331 3 16 32 0 -11.2609
302 1 20.8 30.4 1.6 -11.6365
333 2 19.2 32 0 -9.70222
304 4 24 30.4 1.6 -13.2468
335 4 22.4 32 0 -13.1958
337 4 25.6 32 0 -13.3226
306 4 27.2 30.4 1.6 -13.2248
339 4 28.8 32 0 -13.2182
308 4 30.4 30.4 1.6 -13.1858
341 1 32 32 0 -11.6524
310 3 33.6 30.4 1.6 -11.2196
343 1 35.2 32 0 -11.8029
312 3 36.8 30.4 1.6 -11.2609
345 4 38.4 32 0 -13.2595
314 4 40 30.4 1.6 -13.1042
347 4 41.6 32 0 -13.1554
316 4 43.2 30.4 1.6 -13.21
349 3 44.8 32 0 -11.0175
318 2 46.4 30.4 1.6 -9.73768
351 4 48 32 0 -13.1817
320 2 49.6 30.4 1.6 -9.73887
322 4 1.6 33.6 1.6 -13.1253
353 3 0 35.2 0 -11.2215
324 4 4.8 33.6 1.6 -13.2427
355 4 3.2 35.2 0 -13.2335
326 4 8 33.6 1.6 -13.3048
357 3 6.4 35.2 0 -11.181
328 4 11.2 33.6 1.6 -13.2661
359 4 9.6 35.2 0 -13.1599
330 4 14.4 33.6 1.6 -13.3093
361 2 12.8 35.2 0 -9.84668
332 2 17.6 33.6 1.6 -9.84782
363 2 16 35.2 0 -9.83976
334 2 20.8 33.6 1.6 -9.78792
365 4 19.2 35.2 0 -13.2698
336 4 24 33.6 1.6 -13.3223
367 1 22.4 35.2 0 -11.6729
369 4 25.6 35.2 0 -13.2804
338 3 27.2 33.6 1.6 -11.3415
371 4 28.8 35.2 0 -13.2816
340 3 30.4 33.6 1.6 -11.1779
373 4 32 35.2 0 -13.1897
342 3 33.6 33.6 1.6 -11.261
375 4 35.2 35.2 0 -13.149
344 3 36.8 33.6 1.6 -11.2533
377 4 38.4 35.2 0 -13.1857
346 4 40 33.6 1.6 -13.2467
379 3 41.6 35.2 0 -11.0687
348 1 43.2 33.6 1.6 -11.6895
381 4 44.8 35.2 0 -13.1758
350 4 46.4 33.6 1.6 -13.1327
383 3 48 35.2 0 -11.0995
352 4 49.6 33.6 1.6 -13.3084
354 4 1.6 36.8 1.6 -13.2415
385 4 0 38.4 0 -13.2153
356 4 4.8 36.8 1.6 -13.2947
387 3 3.2 38.4 0 -11.0504
358 4 8 36.8 1.6 -13.2286
389 4 6.4 38.4 0 -13.1987
360 2 11.2 36.8 1.6 -9.81245
391 3 9.6 38.4 0 -11.1533
362 4 14.4 36.8 1.6 -13.2744
393 2 12.8 38.4 0 -9.8553
364 3 17.6 36.8 1.6 -11.1776
395 4 16 38.4 0 -13.3068
366 2 20.8 36.8 1.6 -9.6926
397 1 19.2 38.4 0 -11.7207
368 3 24 36.8 1.6 -11.1314
399 1 22.4 38.4 0 -11.6595
401 4 25.6 38.4 0 -13.2943
370 3 27.2 36.8 1.6 -11.2676
403 4 28.8 38.4 0 -13.1941
372 4 30.4 36.8 1.6 -13.0999
405 1 32 38.4 0 -11.5751
374 4 33.6 36.8 1.6 -13.0754
407 1 35.2 38.4 0 -11.5822
376 4 36.8 36.8 1.6 -13.0838
409 4 38.4 38.4 0 -13.1262
378 1 40 36.8 1.6 -11.6202
411 1 41.6 38.4 0 -11.7041
380 4 43.2 36.8 1.6 -13.1034
413 4 44.8 38.4 0 -13.1939
382 4 46.4 36.8 1.6 -13.1103
415 4 48 38.4 0 -13.228
384 4 49.6 36.8 1.6 -13.2248
386 1 1.6 40 1.6 -11.5831
417 4 0 41.6 0 -13.1469
388 4 4.8 40 1.6 -13.1483
419 2 3.2 41.6 0 -9.79388
390 1 8 40 1.6 -11.584
421 4 6.4 41.6 0 -13.1142
392 4 11.2 40 1.6 -13.2774
423 4 9.6 41.6 0 -13.2776
394 4 14.4 40 1.6 -13.1782
425 4 12.8 41.6 0 -13.2417
396 3 17.6 40 1.6 -11.1983
427 1 16 41.6 0 -11.7458
398 4 20.8 40 1.6 -13.0079
429 1 19.2 41.6 0 -11.7978
400 4 24 40 1.6 -13.1324
431 1 22.4 41.6 0 -11.7097
433 1 25.6 41.6 0 -11.7013
402 4 27.2 40 1.6 -13.2546
435 4 28.8 41.6 0 -13.2262
404 4 30.4 40 1.6 -13.1632
437 4 32 41.6 0 -13.2434
406 4 33.6 40 1.6 -13.1829
439 4 35.2 41.6 0 -13.201
408 4 36.8 40 1.6 -13.2642
441 4 38.4 41.6 0 -13.2218
410 3 40 40 1.6 -11.1738
443 4 41.6 41.6 0 -13.3306
412 3 43.2 40 1.6 -11.3042
445 1 44.8 41.6 0 -11.7977
414 3 46.4 40 1.6 -11.1533
447 4 48 41.6 0 -13.3274
416 2 49.6 40 1.6 -9.69963
418 4 1.6 43.2 1.6 -13.1751
449 4 0 44.8 0 -13.2346
420 3 4.8 43.2 1.6 -11.211
451 4 3.2 44.8 0 -13.3044
422 3 8 43.2 1.6 -11.1909
453 1 6.4 44.8 0 -11.7503
424 3 11.2 43.2 1.6 -11.1975
455 1 9.6 44.8 0 -11.7212
426 3 14.4 43.2 1.6 -11.1186
457 1 12.8 44.8 0 -11.7343
428 3 17.6 43.2 1.6 -11.2021
459 1 16 44.8 0 -11.7655
430 3 20.8 43.2 1.6 -11.2042
461 1 19.2 44.8 0 -11.8121
432 3 24 43.2 1.6 -11.1476
463 1 22.4 44.8 0 -11.7972
465 4 25.6 44.8 0 -13.2863
434 4 27.2 43.2 1.6 -13.2658
467 3 28.8 44.8 0 -11.1482
436 4 30.4 43.2 1.6 -13.2508
469 3 32 44.8 0 -11.1197
438 1 33.6 43.2 1.6 -11.6713
471 3 35.2 44.8 0 -11.1888
440 4 36.8 43.2 1.6 -13.1698
473 4 38.4 44.8 0 -13.2198
442 4 40 43.2 1.6 -13.261
475 4 41.6 44.8 0 -13.2369
444 3 43.2 43.2 1.6 -11.2235
477 1 44.8 44.8 0 -11.8002
446 2 46.4 43.2 1.6 -9.78028
479 4 48 44.8 0 -13.3347
448 3 49.6 43.2 1.6 -11.1101
450 2 1.6 46.4 1.6 -9.72431
481 4 0 48 0 -13.3081
452 3 4.8 46.4 1.6 -11.3061
483 1 3.2 48 0 -11.8436
454 3 8 46.4 1.6 -11.1204
485 1 6.4 48 0 -11.8119
456 4 11.2 46.4 1.6 -13.1045
487 1 9.6 48 0 -11.7711
458 3 14.4 46.4 1.6 -11.1634
489 1 12.8 48 0 -11.7803
460 2 17.6 46.4 1.6 -9.71946
491 1 16 48 0 -11.7467
462 3 20.8 46.4 1.6 -11.1602
493 1 19.2 48 0 -11.766
464 4 24 46.4 1.6 -13.2425
495 1 22.4 48 0 -11.8272
497 4 25.6 48 0 -13.2162
466 1 27.2 46.4 1.6 -11.6712
499 4 28.8 48 0 -13.1577
468 1 30.4 46.4 1.6 -11.7338
501 3 32 48 0 -11.2021
470 1 33.6 46.4 1.6 -11.749
503 2 35.2 48 0 -9.75941
472 4 36.8 46.4 1.6 -13.2451
505 4 38.4 48 0 -13.1022
474 4 40 46.4 1.6 -13.2228
507 4 41.6 48 0 -13.2672
476 3 43.2 46.4 1.6 -11.2262
509 1 44.8 48 0 -11.7737
478 3 46.4 46.4 1.6 -11.1167
511 1 48 48 0 -11.7574
480 4 49.6 46.4 1.6 -13.1945
482 3 1.6 49.6 1.6 -11.1955
484 3 4.8 49.6 1.6 -11.2416
486 3 8 49.6 1.6 -11.1626
488 3 11.2 49.6 1.6 -11.2034
490 3 14.4 49.6 1.6 -11.1648
492 4 17.6 49.6 1.6 -13.1053
494 3 20.8 49.6 1.6 -11.2617
496 3 24 49.6 1.6 -11.2534
498 4 27.2 49.6 1.6 -13.2185
500 1 30.4 49.6 1.6 -11.7385
502 4 33.6 49.6 1.6 -13.272
504 4 36.8 49.6 1.6 -13.2232
506 2 40 49.6 1.6 -9.7028
508 2 43.2 49.6 1.6 -9.75712
510 4 46.4 49.6 1.6 -13.1489
512 3 49.6 49.6 1.6 -11.1896
513 4 0 0 3.2 -13.2963
514 4 1.6 1.6 4.8 -12.9412
515 4 3.2 0 3.2 -13.214
516 2 4.8 1.6 4.8 -9.66329
517 1 6.4 0 3.2 -11.6942
518 2 8 1.6 4.8 -9.58397
519 1 9.6 0 3.2 -11.707
520 2 11.2 1.6 4.8 -9.70706
521 1 12.8 0 3.2 -11.8123
522 3 14.4 1.6 4.8 -11.2036
523 1 16 0 3.2 -11.7663
524 3 17.6 1.6 4.8 -11.3043
525 4 19.2 0 3.2 -13.3053
526 3 20.8 1.6 4.8 -11.2523
527 4 22.4 0 3.2 -13.3486
528 4 24 1.6 4.8 -13.2062
529 4 25.6 0 3.2 -13.2282
530 4 27.2 1.6 4.8 -13.1527
531 3 28.8 0 3.2 -11.1121
532 4 30.4 1.6 4.8 -13.1747
533 2 32 0 3.2 -9.75924
534 1 33.6 1.6 4.8 -11.6089
535 4 35.2 0 3.2 -13.2253
536 3 36.8 1.6 4.8 -11.2091
537 4 38.4 0 3.2 -13.3139
538 3 40 1.6 4.8 -11.2392
539 4 41.6 0 3.2 -13.2839
540 4 43.2 1.6 4.8 -13.2733
541 4 44.8 0 3.2 -13.2445
542 4 46.4 1.6 4.8 -13.2052
543 4 48 0 3.2 -13.3061
544 2 49.6 1.6 4.8 -9.76635
545 4 0 3.2 3.2 -13.1615
546 4 1.6 4.8 4.8 -13.1011
547 1 3.2 3.2 3.2 -11.6134
548 4 4.8 4.8 4.8 -13.1744
549 4 6.4 3.2 3.2 -13.1905
550 3 8 4.8 4.8 -11.1221
551 1 9.6 3.2 3.2 -11.7685
552 3 11.2 4.8 4.8 -11.2042
553 1 12.8 3.2 3.2 -11.8124
554 3 14.4 4.8 4.8 -11.2426
555 1 16 3.2 3.2 -11.8121
556 3 17.6 4.8 4.8 -11.1976
557 1 19.2 3.2 3.2 -11.8157
558 4 20.8 4.8 4.8 -13.2433
559 4 22.4 3.2 3.2 -13.2054
560 2 24 4.8 4.8 -9.59827
561 4 25.6 3.2 3.2 -13.0825
562 4 27.2 4.8 4.8 -13.2082
563 4 28.8 3.2 3.2 -13.1916
564 2 30.4 4.8 4.8 -9.70638
565 4 32 3.2 3.2 -13.1216
566 3 33.6 4.8 4.8 -11.1196
567 4 35.2 3.2 3.2 -13.2607
568 3 36.8 4.8 4.8 -11.2672
569 4 38.4 3.2 3.2 -13.335
570 4 40 4.8 4.8 -13.1117
571 4 41.6 3.2 3.2 -13.1515
572 4 43.2 4.8 4.8 -13.0531
573 4 44.8 3.2 3.2 -13.234
574 3 46.4 4.8 4.8 -11.1181
575 1 48 3.2 3.2 -11.758
576 3 49.6 4.8 4.8 -11.1191
577 1 0 6.4 3.2 -11.7113
578 2 1.6 8 4.8 -9.73311
579 1 3.2 6.4 3.2 -11.6876
580 2 4.8 8 4.8 -9.66139
581 1 6.4 6.4 3.2 -11.7125
582 4 8 8 4.8 -13.0623
583 1 9.6 6.4 3.2 -11.78
584 3 11.2 8 4.8 -11.1642
585 1 12.8 6.4 3.2 -11.8124
586 3 14.4 8 4.8 -11.1229
587 1 16 6.4 3.2 -11.7711
588 4 17.6 8 4.8 -13.1187
589 4 19.2 6.4 3.2 -13.2269
590 2 20.8 8 4.8 -9.60139
591 1 22.4 6.4 3.2 -11.651
592 4 24 8 4.8 -13.0803
593 1 25.6 6.4 3.2 -11.6632
594 3 27.2 8 4.8 -11.1479
595 4 28.8 6.4 3.2 -13.1785
596 3 30.4 8 4.8 -11.1997
597 1 32 6.4 3.2 -11.7047
598 3 33.6 8 4.8 -11.1663
599 1 35.2 6.4 3.2 -11.7696
600 3 36.8 8 4.8 -11.1646
601 4 38.4 6.4 3.2 -13.2227
602 2 40 8 4.8 -9.66038
603 1 41.6 6.4 3.2 -11.6299
604 3 43.2 8 4.8 -11.125
605 1 44.8 6.4 3.2 -11.766
606 3 46.4 8 4.8 -11.2432
607 1 48 6.4 3.2 -11.7799
608 3 49.6 8 4.8 -11.1648
609 1 0 9.6 3.2 -11.7982
610 2 1.6 11.2 4.8 -9.80889
611 1 3.2 9.6 3.2 -11.7142
612 3 4.8 11.2 4.8 -11.1602
613 1 6.4 9.6 3.2 -11.6715
614 3 8 11.2 4.8 -11.1637
615 1 9.6 9.6 3.2 -11.7801
616 3 11.2 11.2 4.8 -11.2029
617 1 12.8 9.6 3.2 -11.8124
618 3 14.4 11.2 4.8 -11.2054
619 1 16 9.6 3.2 -11.7537
620 3 17.6 11.2 4.8 -11.1232
621 1 19.2 9.6 3.2 -11.7175
622 4 20.8 11.2 4.8 -13.0749
623 1 22.4 9.6 3.2 -11.6487
624 4 24 11.2 4.8 -13.1267
625 4 25.6 9.6 3.2 -13.2173
626 3 27.2 11.2 4.8 -11.1891
627 1 28.8 9.6 3.2 -11.7249
628 3 30.4 11.2 4.8 -11.1151
629 1 32 9.6 3.2 -11.6625
630 2 33.6 11.2 4.8 -9.71489
631 1 35.2 9.6 3.2 -11.6168
632 3 36.8 11.2 4.8 -11.1229
633 1 38.4 9.6 3.2 -11.6927
634 4 40 11.2 4.8 -13.0675
635 1 41.6 9.6 3.2 -11.6901
636 3 43.2 11.2 4.8 -11.1122
637 1 44.8 9.6 3.2 -11.7978
638 3 46.4 11.2 4.8 -11.2379
639 1 48 9.6 3.2 -11.8555
640 3 49.6 11.2 4.8 -11.2018
641 1 0 12.8 3.2 -11.8416
642 3 1.6 14.4 4.8 -11.2741
643 4 3.2 12.8 3.2 -13.2559
644 3 4.8 14.4 4.8 -11.2358
645 1 6.4 12.8 3.2 -11.7375
646 2 8 14.4 4.8 -9.6535
647 1 9.6 12.8 3.2 -11.7489
648 4 11.2 14.4 4.8 -13.0285
649 1 12.8 12.8 3.2 -11.6746
650 2 14.4 14.4 4.8 -9.66152
651 1 16 12.8 3.2 -11.7665
652 3 17.6 14.4 4.8 -11.2033
653 1 19.2 12.8 3.2 -11.766
654 2 20.8 14.4 4.8 -9.66023
655 4 22.4 12.8 3.2 -13.2148
656 3 24 14.4 4.8 -11.1154
657 1 25.6 12.8 3.2 -11.7178
658 4 27.2 14.4 4.8 -13.1621
659 4 28.8 12.8 3.2 -13.1275
660 4 30.4 14.4 4.8 -13.1217
661 4 32 12.8 3.2 -13.2442
662 3 33.6 14.4 4.8 -11.1952
663 1 35.2 12.8 3.2 -11.7336
664 3 36.8 14.4 4.8 -11.164
665 1 38.4 12.8 3.2 -11.6748
666 4 40 14.4 4.8 -13.02
667 1 41.6 12.8 3.2 -11.6386
668 2 43.2 14.4 4.8 -9.69467
669 1 44.8 12.8 3.2 -11.7054
670 4 46.4 14.4 4.8 -13.1893
671 1 48 12.8 3.2 -11.7975
672 3 49.6 14.4 4.8 -11.0769
673 1 0 16 3.2 -11.7798
674 3 1.6 17.6 4.8 -11.1954
675 1 3.2 16 3.2 -11.8557
676 3 4.8 17.6 4.8 -11.1981
677 1 6.4 16 3.2 -11.784
678 3 8 17.6 4.8 -11.2312
679 1 9.6 16 3.2 -11.6583
680 4 11.2 17.6 4.8 -13.1371
681 4 12.8 16 3.2 -13.0926
682 4 14.4 17.6 4.8 -13.1924
683 4 16 16 3.2 -13.2789
684 3 17.6 17.6 4.8 -11.191
685 1 19.2 16 3.2 -11.727
686 4 20.8 17.6 4.8 -13.0961
687 1 22.4 16 3.2 -11.7036
688 2 24 17.6 4.8 -9.82095
689 4 25.6 16 3.2 -13.1749
690 3 27.2 17.6 4.8 -11.0585
691 1 28.8 16 3.2 -11.5769
692 4 30.4 17.6 4.8 -13.1611
693 4 32 16 3.2 -13.2315
694 3 33.6 17.6 4.8 -11.1915
695 1 35.2 16 3.2 -11.828
696 3 36.8 17.6 4.8 -11.2784
697 1 38.4 16 3.2 -11.7463
698 3 40 17.6 4.8 -11.0773
699 1 41.6 16 3.2 -11.741
700 3 43.2 17.6 4.8 -11.1595
701 1 44.8 16 3.2 -11.7464
702 3 46.4 17.6 4.8 -11.1226
703 1 48 16 3.2 -11.7461
704 4 49.6 17.6 4.8 -13.1473
705 1 0 19.2 3.2 -11.7239
706 2 1.6 20.8 4.8 -9.66561
707 4 3.2 19.2 3.2 -13.3117
708 4 4.8 20.8 4.8 -13.2488
709 1 6.4 19.2 3.2 -11.8205
710 3 8 20.8 4.8 -11.2141
711 4 9.6 19.2 3.2 -13.2282
712 4 11.2 20.8 4.8 -13.2337
713 1 12.8 19.2 3.2 -11.6515
714 4 14.4 20.8 4.8 -13.1917
715 4 16 19.2 3.2 -13.1928
716 4 17.6 20.8 4.8 -13.1831
717 4 19.2 19.2 3.2 -13.197
718 4 20.8 20.8 4.8 -13.1833
719 3 22.4 19.2 3.2 -11.1243
720 4 24 20.8 4.8 -13.2911
721 4 25.6 19.2 3.2 -13.3044
722 2 27.2 20.8 4.8 -9.75969
723 1 28.8 19.2 3.2 -11.6923
724 3 30.4 20.8 4.8 -11.0736
725 4 32 19.2 3.2 -13.1858
726 4 33.6 20.8 4.8 -13.1494
727 1 35.2 19.2 3.2 -11.711
728 3 36.8 20.8 4.8 -11.0336
729 1 38.4 19.2 3.2 -11.8031
730 4 40 20.8 4.8 -13.1946
731 4 41.6 19.2 3.2 -13.3306
732 3 43.2 20.8 4.8 -11.2354
733 1 44.8 19.2 3.2 -11.8555
734 3 46.4 20.8 4.8 -11.2773
735 1 48 19.2 3.2 -11.7802
736 3 49.6 20.8 4.8 -11.1227
737 4 0 22.4 3.2 -13.2452
738 4 1.6 24 4.8 -13.0516
739 2 3.2 22.4 3.2 -9.73392
740 4 4.8 24 4.8 -13.1443
741 4 6.4 22.4 3.2 -13.1574
742 4 8 24 4.8 -13.1126
743 4 9.6 22.4 3.2 -13.0995
744 1 11.2 24 4.8 -11.6674
745 2 12.8 22.4 3.2 -9.67326
746 1 14.4 24 4.8 -11.6939
747 2 16 22.4 3.2 -9.60068
748 4 17.6 24 4.8 -13.2139
749 4 19.2 22.4 3.2 -13.1629
750 4 20.8 24 4.8 -13.2945
751 3 22.4 22.4 3.2 -11.2101
752 4 24 24 4.8 -13.2289
753 4 25.6 22.4 3.2 -13.2196
754 4 27.2 24 4.8 -13.1878
755 4 28.8 22.4 3.2 -13.276
756 3 30.4 24 4.8 -11.1874
757 1 32 22.4 3.2 -11.7549
758 3 33.6 24 4.8 -11.1129
759 1 35.2 22.4 3.2 -11.709
760 2 36.8 24 4.8 -9.70749
761 1 38.4 22.4 3.2 -11.7285
762 3 40 24 4.8 -11.0838
763 1 41.6 22.4 3.2 -11.7977
764 3 43.2 24 4.8 -11.201
765 1 44.8 22.4 3.2 -11.8115
766 3 46.4 24 4.8 -11.077
767 1 48 22.4 3.2 -11.7683
768 2 49.6 24 4.8 -9.75726
769 4 0 25.6 3.2 -13.2704
771 2 3.2 25.6 3.2 -9.74085
773 4 6.4 25.6 3.2 -12.9438
775 4 9.6 25.6 3.2 -12.9927
777 2 12.8 25.6 3.2 -9.66212
779 4 16 25.6 3.2 -13.0596
781 3 19.2 25.6 3.2 -11.1113
783 3 22.4 25.6 3.2 -11.2628
785 4 25.6 25.6 3.2 -13.2123
787 4 28.8 25.6 3.2 -13.2157
789 4 32 25.6 3.2 -13.3247
791 1 35.2 25.6 3.2 -11.7948
793 1 38.4 25.6 3.2 -11.7201
795 1 41.6 25.6 3.2 -11.7397
797 1 44.8 25.6 3.2 -11.6864
799 1 48 25.6 3.2 -11.7739
770 4 1.6 27.2 4.8 -13.2116
801 4 0 28.8 3.2 -13.2595
772 4 4.8 27.2 4.8 -13.2583
803 3 3.2 28.8 3.2 -11.0481
774 4 8 27.2 4.8 -13.2514
805 4 6.4 28.8 3.2 -13.2376
776 1 11.2 27.2 4.8 -11.7829
807 3 9.6 28.8 3.2 -11.2317
778 1 14.4 27.2 4.8 -11.7466
809 3 12.8 28.8 3.2 -11.2403
780 1 17.6 27.2 4.8 -11.7863
811 3 16 28.8 3.2 -11.1602
782 1 20.8 27.2 4.8 -11.7721
813 2 19.2 28.8 3.2 -9.68358
784 4 24 27.2 4.8 -13.2768
815 3 22.4 28.8 3.2 -11.1213
817 2 25.6 28.8 3.2 -9.76165
786 4 27.2 27.2 4.8 -13.2356
819 2 28.8 28.8 3.2 -9.73976
788 4 30.4 27.2 4.8 -13.1902
821 4 32 28.8 3.2 -13.2166
790 2 33.6 27.2 4.8 -9.79419
823 4 35.2 28.8 3.2 -13.2833
792 2 36.8 27.2 4.8 -9.6962
825 1 38.4 28.8 3.2 -11.6381
794 2 40 27.2 4.8 -9.59761
827 4 41.6 28.8 3.2 -13.1868
796 4 43.2 27.2 4.8 -13.0183
829 1 44.8 28.8 3.2 -11.6867
798 2 46.4 27.2 4.8 -9.71617
831 4 48 28.8 3.2 -13.2435
800 3 49.6 27.2 4.8 -11.2218
802 4 1.6 30.4 4.8 -13.0306
833 4 0 32 3.2 -13.1202
804 4 4.8 30.4 4.8 -13.269
835 4 3.2 32 3.2 -13.0842
806 4 8 30.4 4.8 -13.3764
837 3 6.4 32 3.2 -11.3186
808 1 11.2 30.4 4.8 -11.8144
839 3 9.6 32 3.2 -11.2212
810 1 14.4 30.4 4.8 -11.8554
841 3 12.8 32 3.2 -11.2738
812 4 17.6 30.4 4.8 -13.3032
843 3 16 32 3.2 -11.2662
814 1 20.8 30.4 4.8 -11.7299
845 4 19.2 32 3.2 -13.3146
816 1 24 30.4 4.8 -11.7845
847 3 22.4 32 3.2 -11.2134
849 3 25.6 32 3.2 -11.251
818 1 27.2 30.4 4.8 -11.7279
851 4 28.8 32 3.2 -13.2106
820 4 30.4 30.4 4.8 -13.1368
853 4 32 32 3.2 -13.2743
822 4 33.6 30.4 4.8 -13.1835
855 4 35.2 32 3.2 -13.2508
824 4 36.8 30.4 4.8 -13.1256
857 4 38.4 32 3.2 -13.1896
826 4 40 30.4 4.8 -13.1801
859 3 41.6 32 3.2 -11.1297
828 3 43.2 30.4 4.8 -11.1054
861 4 44.8 32 3.2 -13.2027
830 2 46.4 30.4 4.8 -9.66342
863 4 48 32 3.2 -13.1627
832 4 49.6 30.4 4.8 -13.1657
834 4 1.6 33.6 4.8 -13.1795
865 4 0 35.2 3.2 -13.3083
836 4 4.8 33.6 4.8 -13.2751
867 2 3.2 35.2 3.2 -9.78487
838 4 8 33.6 4.8 -13.3217
869 3 6.4 35.2 3.2 -11.2748
840 4 11.2 33.6 4.8 -13.2823
871 4 9.6 35.2 3.2 -13.292
842 1 14.4 33.6 4.8 -11.7026
873 4 12.8 35.2 3.2 -13.2195
844 4 17.6 33.6 4.8 -13.2861
875 4 16 35.2 3.2 -13.2168
846 3 20.8 33.6 4.8 -11.1878
877 4 19.2 35.2 3.2 -13.2216
848 4 24 33.6 4.8 -13.2635
879 4 22.4 35.2 3.2 -13.2273
881 4 25.6 35.2 3.2 -13.37
850 4 27.2 33.6 4.8 -13.2741
883 4 28.8 35.2 3.2 -13.2539
852 4 30.4 33.6 4.8 -13.2688
885 4 32 35.2 3.2 -13.1864
854 4 33.6 33.6 4.8 -13.2053
887 4 35.2 35.2 3.2 -13.1878
856 4 36.8 33.6 4.8 -13.155
889 4 38.4 35.2 3.2 -13.1884
858 4 40 33.6 4.8 -13.1935
891 3 41.6 35.2 3.2 -11.1447
860 4 43.2 33.6 4.8 -13.2045
893 4 44.8 35.2 3.2 -13.0233
862 4 46.4 33.6 4.8 -13.0892
895 4 48 35.2 3.2 -13.2075
864 3 49.6 33.6 4.8 -11.0702
866 3 1.6 36.8 4.8 -11.261
897 4 0 38.4 3.2 -13.2026
868 2 4.8 36.8 4.8 -9.81179
899 4 3.2 38.4 3.2 -13.2727
870 4 8 36.8 4.8 -13.2616
901 4 6.4 38.4 3.2 -13.1055
872 3 11.2 36.8 4.8 -11.2549
903 4 9.6 38.4 3.2 -13.2321
874 2 14.4 36.8 4.8 -9.73211
905 4 12.8 38.4 3.2 -13.2666
876 4 17.6 36.8 4.8 -13.1698
907 4 16 38.4 3.2 -13.2478
878 4 20.8 36.8 4.8 -13.1563
909 1 19.2 38.4 3.2 -11.6901
880 4 24 36.8 4.8 -13.1473
911 1 22.4 38.4 3.2 -11.5916
913 3 25.6 38.4 3.2 -11.1805
882 4 27.2 36.8 4.8 -13.2277
915 4 28.8 38.4 3.2 -13.1223
884 1 30.4 36.8 4.8 -11.6134
917 2 32 38.4 3.2 -9.66431
886 1 33.6 36.8 4.8 -11.6318
919 3 35.2 38.4 3.2 -11.0198
888 1 36.8 36.8 4.8 -11.6559
921 2 38.4 38.4 3.2 -9.73584
890 4 40 36.8 4.8 -13.1735
923 4 41.6 38.4 3.2 -13.2467
892 4 43.2 36.8 4.8 -13.1917
925 1 44.8 38.4 3.2 -11.6481
894 2 46.4 36.8 4.8 -9.62923
927 1 48 38.4 3.2 -11.6819
896 3 49.6 36.8 4.8 -11.2358
898 3 1.6 40 4.8 -11.2004
929 1 0 41.6 3.2 -11.7051
900 2 4.8 40 4.8 -9.69801
931 4 3.2 41.6 3.2 -13.2146
902 2 8 40 4.8 -9.66729
933 4 6.4 41.6 3.2 -13.1966
904 3 11.2 40 4.8 -11.1982
935 4 9.6 41.6 3.2 -13.2474
906 3 14.4 40 4.8 -11.1967
937 1 12.8 41.6 3.2 -11.7406
908 3 17.6 40 4.8 -11.2664
939 1 16 41.6 3.2 -11.7559
910 3 20.8 40 4.8 -11.1409
941 4 19.2 41.6 3.2 -13.285
912 4 24 40 4.8 -13.0731
943 1 22.4 41.6 3.2 -11.6419
945 2 25.6 41.6 3.2 -9.77376
914 4 27.2 40 4.8 -13.0747
947 2 28.8 41.6 3.2 -9.70204
916 1 30.4 40 4.8 -11.6256
949 3 32 41.6 3.2 -11.0737
918 1 33.6 40 4.8 -11.7809
951 2 35.2 41.6 3.2 -9.72626
920 4 36.8 40 4.8 -13.2155
953 4 38.4 41.6 3.2 -13.2624
922 4 40 40 4.8 -13.2981
955 4 41.6 41.6 3.2 -13.3168
924 3 43.2 40 4.8 -11.1918
957 1 44.8 41.6 3.2 -11.7449
926 2 46.4 40 4.8 -9.65113
959 1 48 41.6 3.2 -11.7033
928 3 49.6 40 4.8 -11.2026
930 3 1.6 43.2 4.8 -11.1568
961 1 0 44.8 3.2 -11.7166
932 4 4.8 43.2 4.8 -13.1414
963 4 3.2 44.8 3.2 -13.2795
934 2 8 43.2 4.8 -9.69295
965 4 6.4 44.8 3.2 -13.2714
936 3 11.2 43.2 4.8 -11.1205
967 1 9.6 44.8 3.2 -11.7086
938 2 14.4 43.2 4.8 -9.69052
969 1 12.8 44.8 3.2 -11.7328
940 4 17.6 43.2 4.8 -13.1126
971 4 16 44.8 3.2 -13.2197
942 3 20.8 43.2 4.8 -11.1181
973 1 19.2 44.8 3.2 -11.7465
944 4 24 43.2 4.8 -13.1569
975 1 22.4 44.8 3.2 -11.7076
977 3 25.6 44.8 3.2 -11.1401
946 1 27.2 43.2 4.8 -11.6746
979 3 28.8 44.8 3.2 -11.1994
948 1 30.4 43.2 4.8 -11.7056
981 4 32 44.8 3.2 -13.101
950 1 33.6 43.2 4.8 -11.7173
983 2 35.2 44.8 3.2 -9.71419
952 1 36.8 43.2 4.8 -11.7741
985 3 38.4 44.8 3.2 -11.1024
954 4 40 43.2 4.8 -13.2462
987 4 41.6 44.8 3.2 -13.295
956 3 43.2 43.2 4.8 -11.1828
989 4 44.8 44.8 3.2 -13.2826
958 4 46.4 43.2 4.8 -13.062
991 1 48 44.8 3.2 -11.7404
960 3 49.6 43.2 4.8 -11.1608
962 2 1.6 46.4 4.8 -9.75136
993 1 0 48 3.2 -11.7055
964 3 4.8 46.4 4.8 -11.1575
995 1 3.2 48 3.2 -11.7513
966 4 8 46.4 4.8 -13.0791
997 1 6.4 48 3.2 -11.7694
968 2 11.2 46.4 4.8 -9.66024
999 4 9.6 48 3.2 -13.1911
970 3 14.4 46.4 4.8 -11.1644
1001 1 12.8 48 3.2 -11.7664
972 2 17.6 46.4 4.8 -9.6931
1003 1 16 48 3.2 -11.7562
974 2 20.8 46.4 4.8 -9.69613
1005 4 19.2 48 3.2 -13.2488
976 4 24 46.4 4.8 -13.1219
1007 4 22.4 48 3.2 -13.2291
1009 4 25.6 48 3.2 -13.1986
978 1 27.2 46.4 4.8 -11.7203
1011 3 28.8 48 3.2 -11.1248
980 1 30.4 46.4 4.8 -11.7798
1013 3 32 48 3.2 -11.1971
982 1 33.6 46.4 4.8 -11.7719
1015 3 35.2 48 3.2 -11.1884
984 1 36.8 46.4 4.8 -11.7421
1017 4 38.4 48 3.2 -13.2302
986 4 40 46.4 4.8 -13.1947
1019 4 41.6 48 3.2 -13.2612
988 4 43.2 46.4 4.8 -13.206
1021 1 44.8 48 3.2 -11.7396
990 3 46.4 46.4 4.8 -11.199
1023 1 48 48 3.2 -11.7404
992 3 49.6 46.4 4.8 -11.157
994 4 1.6 49.6 4.8 -13.1249
996 3 4.8 49.6 4.8 -11.1588
998 4 8 49.6 4.8 -13.033
1000 3 11.2 49.6 4.8 -11.161
1002 3 14.4 49.6 4.8 -11.2435
1004 3 17.6 49.6 4.8 -11.1127
1006 4 20.8 49.6 4.8 -13.3089
1008 3 24 49.6 4.8 -11.0894
1010 1 27.2 49.6 4.8 -11.721
1012 1 30.4 49.6 4.8 -11.857
1014 4 33.6 49.6 4.8 -13.2687
1016 4 36.8 49.6 4.8 -13.2422
1018 3 40 49.6 4.8 -11.3151
1020 3 43.2 49.6 4.8 -11.181
1022 3 46.4 49.6 4.8 -11.2319
1024 3 49.6 49.6 4.8 -11.227
1025 4 0 0 6.4 -13.1092
1026 4 1.6 1.6 8 -13.0969
1027 4 3.2 0 6.4 -13.1652
1028 3 4.8 1.6 8 -11.1558
1029 1 6.4 0 6.4 -11.6682
1030 2 8 1.6 8 -9.62436
1031 1 9.6 0 6.4 -11.638
1032 3 11.2 1.6 8 -11.2002
1033 1 12.8 0 6.4 -11.826
1034 3 14.4 1.6 8 -11.2029
1035 1 16 0 6.4 -11.7974
1036 3 17.6 1.6 8 -11.2351
1037 4 19.2 0 6.4 -13.3219
1038 3 20.8 1.6 8 -11.2621
1039 4 22.4 0 6.4 -13.267
1040 4 24 1.6 8 -13.2288
1041 2 25.6 0 6.4 -9.7699
1042 4 27.2 1.6 8 -13.2786
1043 3 28.8 0 6.4 -11.2322
1044 1 30.4 1.6 8 -11.671
1045 3 32 0 6.4 -11.1546
1046 4 33.6 1.6 8 -13.0699
1047 4 35.2 0 6.4 -13.1716
1048 4 36.8 1.6 8 -13.2023
1049 4 38.4 0 6.4 -13.3189
1050 4 40 1.6 8 -13.3239
1051 4 41.6 0 6.4 -13.3926
1052 3 43.2 1.6 8 -11.0801
1053 4 44.8 0 6.4 -13.2773
1054 4 46.4 1.6 8 -13.2241
1055 4 48 0 6.4 -13.227
1056 4 49.6 1.6 8 -13.1543
1057 1 0 3.2 6.4 -11.6281
1058 3 1.6 4.8 8 -11.1806
1059 1 3.2 3.2 6.4 -11.6341
1060 3 4.8 4.8 8 -11.2581
1061 1 6.4 3.2 6.4 -11.7238
1062 3 8 4.8 8 -11.1992
1063 1 9.6 3.2 6.4 -11.7508
1064 3 11.2 4.8 8 -11.2432
1065 1 12.8 3.2 6.4 -11.8123
1066 3 14.4 4.8 8 -11.1654
1067 1 16 3.2 6.4 -11.8556
1068 3 17.6 4.8 8 -11.1134
1069 4 19.2 3.2 6.4 -13.3517
1070 2 20.8 4.8 8 -9.76359
1071 4 22.4 3.2 6.4 -13.2654
1072 3 24 4.8 8 -11.1474
1073 4 25.6 3.2 6.4 -13.1945
1074 3 27.2 4.8 8 -11.2178
1075 4 28.8 3.2 6.4 -13.1908
1076 4 30.4 4.8 8 -13.1754
1077 4 32 3.2 6.4 -13.0992
1078 2 33.6 4.8 8 -9.6687
1079 1 35.2 3.2 6.4 -11.6524
1080 2 36.8 4.8 8 -9.69785
1081 4 38.4 3.2 6.4 -13.2638
1082 2 40 4.8 8 -9.7076
1083 2 41.6 3.2 6.4 -9.75181
1084 4 43.2 4.8 8 -13.1973
1085 4 44.8 3.2 6.4 -13.162
1086 4 46.4 4.8 8 -13.2218
1087 4 48 3.2 6.4 -13.25
1088 3 49.6 4.8 8 -11.1811
1089 1 0 6.4 6.4 -11.7198
1090 4 1.6 8 8 -13.212
1091 3 3.2 6.4 6.4 -11.1326
1092 4 4.8 8 8 -13.2019
1093 4 6.4 6.4 6.4 -13.245
1094 2 8 8 8 -9.63052
1095 1 9.6 6.4 6.4 -11.7665
1096 3 11.2 8 8 -11.2045
1097 1 12.8 6.4 6.4 -11.8417
1098 3 14.4 8 8 -11.1651
1099 1 16 6.4 6.4 -11.732
1100 4 17.6 8 8 -13.0256
1101 4 19.2 6.4 6.4 -13.2033
1102 2 20.8 8 8 -9.76074
1103 4 22.4 6.4 6.4 -13.1899