ITEM: TIMESTEP
0
ITEM: NUMBER OF ATOMS
8192
ITEM: BOX BOUNDS pp pp pp
0.0000000000000000e+00 5.1200000000000003e+01
0.0000000000000000e+00 5.1200000000000003e+01
0.0000000000000000e+00 5.1200000000000003e+01
ITEM: ATOMS id type x y z c_eng
1 1 0 0 0 -11.7217
2 3 1.6 1.6 1.6 -11.2351
3 4 3.2 0 0 -13.2006
4 4 4.8 1.6 1.6 -13.245
5 4 6.4 0 0 -13.1905
6 3 8 1.6 1.6 -10.9793
7 1 9.6 0 0 -11.6625
8 3 11.2 1.6 1.6 -11.1198
9 1 12.8 0 0 -11.7279
10 4 14.4 1.6 1.6 -13.1114
11 4 16 0 0 -13.2121
12 4 17.6 1.6 1.6 -12.9721
13 4 19.2 0 0 -13.2368
14 2 20.8 1.6 1.6 -9.76445
15 4 22.4 0 0 -13.2658
16 4 24 1.6 1.6 -13.2417
17 4 25.6 0 0 -13.2616
18 4 27.2 1.6 1.6 -13.2287
19 3 28.8 0 0 -11.0219
20 4 30.4 1.6 1.6 -13.1605
21 4 32 0 0 -13.0696
22 4 33.6 1.6 1.6 -13.1248
23 2 35.2 0 0 -9.67164
24 4 36.8 1.6 1.6 -13.2212
25 4 38.4 0 0 -13.2324
26 3 40 1.6 1.6 -11.1594
27 1 41.6 0 0 -11.7979
28 3 43.2 1.6 1.6 -11.2012
29 1 44.8 0 0 -11.7208
30 3 46.4 1.6 1.6 -11.1228
31 4 48 0 0 -13.1852
32 3 49.6 1.6 1.6 -11.2037
33 1 0 3.2 0 -11.8556
34 3 1.6 4.8 1.6 -11.2016
35 4 3.2 3.2 0 -13.2446
36 2 4.8 4.8 1.6 -9.69642
37 4 6.4 3.2 0 -13.191
38 4 8 4.8 1.6 -13.2027
39 1 9.6 3.2 0 -11.7455
40 2 11.2 4.8 1.6 -9.6909
41 1 12.8 3.2 0 -11.7533
42 3 14.4 4.8 1.6 -11.0825
43 1 16 3.2 0 -11.6426
44 2 17.6 4.8 1.6 -9.66049
45 1 19.2 3.2 0 -11.7015
46 3 20.8 4.8 1.6 -11.201
47 1 22.4 3.2 0 -11.7314
48 3 24 4.8 1.6 -11.1134
49 4 25.6 3.2 0 -13.2035
50 3 27.2 4.8 1.6 -11.174
51 4 28.8 3.2 0 -13.1826
52 4 30.4 4.8 1.6 -13.2643
53 4 32 3.2 0 -13.1152
54 4 33.6 4.8 1.6 -13.2295
55 2 35.2 3.2 0 -9.69843
56 3 36.8 4.8 1.6 -11.2533
57 1 38.4 3.2 0 -11.7305
58 3 40 4.8 1.6 -11.275
59 1 41.6 3.2 0 -11.7998
60 3 43.2 4.8 1.6 -11.2016
61 4 44.8 3.2 0 -13.2244
62 4 46.4 4.8 1.6 -13.1523
63 1 48 3.2 0 -11.754
64 3 49.6 4.8 1.6 -11.1241
65 1 0 6.4 0 -11.7394
66 2 1.6 8 1.6 -9.71452
67 1 3.2 6.4 0 -11.7375
68 3 4.8 8 1.6 -11.1973
69 1 6.4 6.4 0 -11.6757
70 3 8 8 1.6 -11.1058
71 1 9.6 6.4 0 -11.6939
72 3 11.2 8 1.6 -11.1966
73 1 12.8 6.4 0 -11.7997
74 3 14.4 8 1.6 -11.2039
75 1 16 6.4 0 -11.7237
76 4 17.6 8 1.6 -13.081
77 4 19.2 6.4 0 -13.1745
78 2 20.8 8 1.6 -9.66994
79 1 22.4 6.4 0 -11.7221
80 2 24 8 1.6 -9.75835
81 1 25.6 6.4 0 -11.746
82 4 27.2 8 1.6 -13.2072
83 4 28.8 6.4 0 -13.2672
84 4 30.4 8 1.6 -13.2155
85 3 32 6.4 0 -11.2066
86 4 33.6 8 1.6 -13.1828
87 4 35.2 6.4 0 -13.2247
88 2 36.8 8 1.6 -9.70416
89 1 38.4 6.4 0 -11.768
90 3 40 8 1.6 -11.2303
91 1 41.6 6.4 0 -11.7634
92 3 43.2 8 1.6 -11.1911
93 1 44.8 6.4 0 -11.6569
94 3 46.4 8 1.6 -11.1495
95 1 48 6.4 0 -11.664
96 2 49.6 8 1.6 -9.66459
97 4 0 9.6 0 -13.2421
98 2 1.6 11.2 1.6 -9.69864
99 1 3.2 9.6 0 -11.7678
100 2 4.8 11.2 1.6 -9.6316
101 1 6.4 9.6 0 -11.7277
102 4 8 11.2 1.6 -13.1258
103 1 9.6 9.6 0 -11.6944
104 2 11.2 11.2 1.6 -9.74894
105 1 12.8 9.6 0 -11.7449
106 3 14.4 11.2 1.6 -11.0749
107 4 16 9.6 0 -13.215
108 2 17.6 11.2 1.6 -9.75778
109 4 19.2 9.6 0 -13.1804
110 3 20.8 11.2 1.6 -11.27
111 4 22.4 9.6 0 -13.2411
112 3 24 11.2 1.6 -11.1961
113 4 25.6 9.6 0 -13.239
114 3 27.2 11.2 1.6 -11.0642
115 4 28.8 9.6 0 -13.2309
116 2 30.4 11.2 1.6 -9.84711
117 3 32 9.6 0 -11.1635
118 4 33.6 11.2 1.6 -13.1748
119 4 35.2 9.6 0 -13.1887
120 2 36.8 11.2 1.6 -9.70043
121 4 38.4 9.6 0 -13.2287
122 2 40 11.2 1.6 -9.72219
123 4 41.6 9.6 0 -13.2996
124 4 43.2 11.2 1.6 -13.0662
125 1 44.8 9.6 0 -11.6502
126 4 46.4 11.2 1.6 -13.1033
127 4 48 9.6 0 -13.2359
128 2 49.6 11.2 1.6 -9.8192
129 4 0 12.8 0 -13.227
130 4 1.6 14.4 1.6 -13.1246
131 1 3.2 12.8 0 -11.6397
132 4 4.8 14.4 1.6 -13.1609
133 4 6.4 12.8 0 -13.2152
134 3 8 14.4 1.6 -11.225
135 1 9.6 12.8 0 -11.7827
136 3 11.2 14.4 1.6 -11.1112
137 1 12.8 12.8 0 -11.7532
138 4 14.4 14.4 1.6 -13.2342
139 4 16 12.8 0 -13.3021
140 3 17.6 14.4 1.6 -11.2329
141 4 19.2 12.8 0 -13.3325
142 3 20.8 14.4 1.6 -11.1584
143 1 22.4 12.8 0 -11.7531
144 4 24 14.4 1.6 -13.0634
145 1 25.6 12.8 0 -11.6588
146 4 27.2 14.4 1.6 -13.1921
147 1 28.8 12.8 0 -11.6897
148 3 30.4 14.4 1.6 -11.0921
149 4 32 12.8 0 -13.2234
150 2 33.6 14.4 1.6 -9.77233
151 4 35.2 12.8 0 -13.1903
152 3 36.8 14.4 1.6 -11.1434
153 1 38.4 12.8 0 -11.6391
154 2 40 14.4 1.6 -9.68129
155 1 41.6 12.8 0 -11.6867
156 3 43.2 14.4 1.6 -11.0839
157 1 44.8 12.8 0 -11.6241
158 2 46.4 14.4 1.6 -9.63366
159 4 48 12.8 0 -13.2483
160 3 49.6 14.4 1.6 -11.2253
161 4 0 16 0 -13.2751
162 3 1.6 17.6 1.6 -11.1568
163 4 3.2 16 0 -13.19
164 2 4.8 17.6 1.6 -9.79259
165 4 6.4 16 0 -13.2937
166 2 8 17.6 1.6 -9.72536
167 1 9.6 16 0 -11.7344
168 2 11.2 17.6 1.6 -9.71892
169 4 12.8 16 0 -13.2523
170 3 14.4 17.6 1.6 -11.1509
171 4 16 16 0 -13.3315
172 3 17.6 17.6 1.6 -11.1586
173 1 19.2 16 0 -11.7833
174 2 20.8 17.6 1.6 -9.65427
175 1 22.4 16 0 -11.7534
176 3 24 17.6 1.6 -11.1881
177 1 25.6 16 0 -11.7043
178 3 27.2 17.6 1.6 -11.0987
179 4 28.8 16 0 -13.2267
180 4 30.4 17.6 1.6 -13.1596
181 4 32 16 0 -13.1835
182 4 33.6 17.6 1.6 -13.1454
183 4 35.2 16 0 -13.2298
184 4 36.8 17.6 1.6 -13.1923
185 1 38.4 16 0 -11.6228
186 3 40 17.6 1.6 -11.0637
187 1 41.6 16 0 -11.7156
188 3 43.2 17.6 1.6 -11.2334
189 1 44.8 16 0 -11.7253
190 4 46.4 17.6 1.6 -13.0123
191 4 48 16 0 -13.2175
192 3 49.6 17.6 1.6 -11.1603
193 1 0 19.2 0 -11.7511
194 4 1.6 20.8 1.6 -13.1554
195 1 3.2 19.2 0 -11.6622
196 2 4.8 20.8 1.6 -9.56718
197 4 6.4 19.2 0 -13.1426
198 4 8 20.8 1.6 -13.0708
199 1 9.6 19.2 0 -11.6739
200 3 11.2 20.8 1.6 -11.1234
201 1 12.8 19.2 0 -11.7137
202 2 14.4 20.8 1.6 -9.65991
203 4 16 19.2 0 -13.2425
204 2 17.6 20.8 1.6 -9.70141
205 1 19.2 19.2 0 -11.6451
206 4 20.8 20.8 1.6 -13.1324
207 1 22.4 19.2 0 -11.7196
208 3 24 20.8 1.6 -11.2793
209 4 25.6 19.2 0 -13.2631
210 2 27.2 20.8 1.6 -9.73326
211 4 28.8 19.2 0 -13.1951
212 4 30.4 20.8 1.6 -13.1157
213 4 32 19.2 0 -13.1092
214 4 33.6 20.8 1.6 -13.1102
215 3 35.2 19.2 0 -11.0806
216 4 36.8 20.8 1.6 -13.0948
217 4 38.4 19.2 0 -13.1954
218 4 40 20.8 1.6 -13.2386
219 4 41.6 19.2 0 -13.33
220 3 43.2 20.8 1.6 -11.2208
221 1 44.8 19.2 0 -11.7602
222 2 46.4 20.8 1.6 -9.71844
223 1 48 19.2 0 -11.701
224 3 49.6 20.8 1.6 -11.1506
225 4 0 22.4 0 -13.3016
226 2 1.6 24 1.6 -9.76191
227 1 3.2 22.4 0 -11.7079
228 3 4.8 24 1.6 -11.121
229 1 6.4 22.4 0 -11.7231
230 2 8 24 1.6 -9.6954
231 4 9.6 22.4 0 -13.2976
232 3 11.2 24 1.6 -11.195
233 1 12.8 22.4 0 -11.7276
234 2 14.4 24 1.6 -9.69813
235 4 16 22.4 0 -13.2019
236 4 17.6 24 1.6 -13.1819
237 2 19.2 22.4 0 -9.7344
238 4 20.8 24 1.6 -13.2301
239 4 22.4 22.4 0 -13.1521
240 4 24 24 1.6 -13.1825
241 1 25.6 22.4 0 -11.6245
242 4 27.2 24 1.6 -13.1342
243 4 28.8 22.4 0 -13.188
244 2 30.4 24 1.6 -9.70165
245 4 32 22.4 0 -13.1345
246 3 33.6 24 1.6 -11.1118
247 4 35.2 22.4 0 -13.262
248 4 36.8 24 1.6 -13.0357
249 4 38.4 22.4 0 -13.1007
250 4 40 24 1.6 -13.0492
251 4 41.6 22.4 0 -13.1752
252 4 43.2 24 1.6 -13.1978
253 4 44.8 22.4 0 -13.3245
254 3 46.4 24 1.6 -11.1913
255 4 48 22.4 0 -13.3266
256 2 49.6 24 1.6 -9.75843
257 4 0 25.6 0 -13.2079
259 1 3.2 25.6 0 -11.7339
261 4 6.4 25.6 0 -13.2376
263 4 9.6 25.6 0 -13.2599
265 1 12.8 25.6 0 -11.6519
267 4 16 25.6 0 -13.1947
269 2 19.2 25.6 0 -9.7659
271 4 22.4 25.6 0 -13.1287
273 2 25.6 25.6 0 -9.63934
275 4 28.8 25.6 0 -13.0664
277 1 32 25.6 0 -11.6677
279 4 35.2 25.6 0 -13.3017
281 4 38.4 25.6 0 -13.2146
283 1 41.6 25.6 0 -11.694
285 1 44.8 25.6 0 -11.7232
287 1 48 25.6 0 -11.7003
258 2 1.6 27.2 1.6 -9.63656
289 1 0 28.8 0 -11.7624
260 4 4.8 27.2 1.6 -13.1132
291 4 3.2 28.8 0 -13.2452
262 4 8 27.2 1.6 -13.0374
293 4 6.4 28.8 0 -13.1922
264 2 11.2 27.2 1.6 -9.73596
295 4 9.6 28.8 0 -13.1554
266 4 14.4 27.2 1.6 -13.1388
297 4 12.8 28.8 0 -13.1657
268 4 17.6 27.2 1.6 -13.2957
299 3 16 28.8 0 -11.1368
270 1 20.8 27.2 1.6 -11.7271
301 3 19.2 28.8 0 -11.2688
272 4 24 27.2 1.6 -13.2335
303 3 22.4 28.8 0 -11.1505
305 3 25.6 28.8 0 -11.2894
274 4 27.2 27.2 1.6 -13.2836
307 4 28.8 28.8 0 -13.1414
276 2 30.4 27.2 1.6 -9.66444
309 1 32 28.8 0 -11.6758
278 3 33.6 27.2 1.6 -11.2376
311 1 35.2 28.8 0 -11.7804
280 2 36.8 27.2 1.6 -9.79558
313 4 38.4 28.8 0 -13.2977
282 3 40 27.2 1.6 -11.1123
315 1 41.6 28.8 0 -11.8102
284 3 43.2 27.2 1.6 -11.1242
317 1 44.8 28.8 0 -11.7977
286 3 46.4 27.2 1.6 -11.0818
319 1 48 28.8 0 -11.7409
288 4 49.6 27.2 1.6 -13.0783
290 3 1.6 30.4 1.6 -11.2774
321 1 0 32 0 -11.7659
292 3 4.8 30.4 1.6 -11.1185
323 1 3.2 32 0 -11.7635
294 4 8 30.4 1.6 -13.0456
325 1 6.4 32 0 -11.6273
296 4 11.2 30.4 1.6 -13.1624
327 4 9.6 32 0 -13.1717
298 4 14.4 30.4 1.6 -13.1152
329 4 12.8 32 0 -13.2698
300 1 17.6 30.4 1.6 -11.7428
331 4 16 32 0 -13.2694
302 1 20.8 30.4 1.6 -11.7539
333 3 19.2 32 0 -11.1024
304 4 24 30.4 1.6 -13.2715
335 4 22.4 32 0 -13.2488
337 4 25.6 32 0 -13.1761
306 4 27.2 30.4 1.6 -13.1537
339 4 28.8 32 0 -13.1136
308 4 30.4 30.4 1.6 -13.0576
341 4 32 32 0 -13.1722
310 3 33.6 30.4 1.6 -11.1223
343 1 35.2 32 0 -11.6902
312 4 36.8 30.4 1.6 -13.0769
345 4 38.4 32 0 -13.171
314 4 40 30.4 1.6 -13.0742
347 1 41.6 32 0 -11.732
316 3 43.2 30.4 1.6 -11.1651
349 1 44.8 32 0 -11.8121
318 3 46.4 30.4 1.6 -11.2051
351 1 48 32 0 -11.771
320 3 49.6 30.4 1.6 -11.1237
322 3 1.6 33.6 1.6 -11.1624
353 4 0 35.2 0 -13.2584
324 2 4.8 33.6 1.6 -9.57841
355 1 3.2 35.2 0 -11.6305
326 4 8 33.6 1.6 -13.0617
357 1 6.4 35.2 0 -11.6079
328 3 11.2 33.6 1.6 -11.1526
359 1 9.6 35.2 0 -11.7459
330 3 14.4 33.6 1.6 -11.266
361 1 12.8 35.2 0 -11.8274
332 4 17.6 33.6 1.6 -13.1971
363 4 16 35.2 0 -13.3185
334 4 20.8 33.6 1.6 -13.2434
365 4 19.2 35.2 0 -13.2115
336 4 24 33.6 1.6 -13.145
367 4 22.4 35.2 0 -13.1905
369 4 25.6 35.2 0 -13.2336
338 4 27.2 33.6 1.6 -13.1051
371 1 28.8 35.2 0 -11.681
340 4 30.4 33.6 1.6 -13.1789
373 4 32 35.2 0 -13.1968
342 2 33.6 33.6 1.6 -9.70634
375 1 35.2 35.2 0 -11.6494
344 2 36.8 33.6 1.6 -9.5651
377 1 38.4 35.2 0 -11.6457
346 4 40 33.6 1.6 -12.9893
379 1 41.6 35.2 0 -11.7314
348 3 43.2 33.6 1.6 -11.1986
381 1 44.8 35.2 0 -11.8281
350 2 46.4 33.6 1.6 -9.76932
383 1 48 35.2 0 -11.7708
352 3 49.6 33.6 1.6 -11.1221
354 3 1.6 36.8 1.6 -11.1615
385 1 0 38.4 0 -11.8285
356 4 4.8 36.8 1.6 -13.058
387 4 3.2 38.4 0 -13.2542
358 3 8 36.8 1.6 -11.1527
389 4 6.4 38.4 0 -13.2457
360 2 11.2 36.8 1.6 -9.81455
391 4 9.6 38.4 0 -13.2666
362 3 14.4 36.8 1.6 -11.3242
393 4 12.8 38.4 0 -13.3262
364 3 17.6 36.8 1.6 -11.1872
395 4 16 38.4 0 -13.2626
366 3 20.8 36.8 1.6 -11.237
397 1 19.2 38.4 0 -11.6944
368 3 24 36.8 1.6 -11.2657
399 1 22.4 38.4 0 -11.8278
401 1 25.6 38.4 0 -11.7481
370 4 27.2 36.8 1.6 -13.0951
403 1 28.8 38.4 0 -11.632
372 3 30.4 36.8 1.6 -11.0545
405 4 32 38.4 0 -13.265
374 3 33.6 36.8 1.6 -11.1739
407 4 35.2 38.4 0 -13.2028
376 4 36.8 36.8 1.6 -13.1469
409 4 38.4 38.4 0 -13.1249
378 4 40 36.8 1.6 -13.1098
411 1 41.6 38.4 0 -11.726
380 3 43.2 36.8 1.6 -11.267
413 1 44.8 38.4 0 -11.8146
382 3 46.4 36.8 1.6 -11.1192
415 1 48 38.4 0 -11.7798
384 3 49.6 36.8 1.6 -11.2403
386 3 1.6 40 1.6 -11.3112
417 4 0 41.6 0 -13.252
388 3 4.8 40 1.6 -11.1609
419 1 3.2 41.6 0 -11.7852
390 3 8 40 1.6 -11.0722
421 1 6.4 41.6 0 -11.6746
392 4 11.2 40 1.6 -13.0209
423 1 9.6 41.6 0 -11.5704
394 3 14.4 40 1.6 -11.1435
425 4 12.8 41.6 0 -13.1554
396 4 17.6 40 1.6 -13.1485
427 1 16 41.6 0 -11.7036
398 3 20.8 40 1.6 -11.1994
429 1 19.2 41.6 0 -11.7467
400 3 24 40 1.6 -11.1979
431 1 22.4 41.6 0 -11.8555
433 1 25.6 41.6 0 -11.7939
402 4 27.2 40 1.6 -13.0315
435 4 28.8 41.6 0 -13.1754
404 4 30.4 40 1.6 -13.1143
437 4 32 41.6 0 -13.2945
406 4 33.6 40 1.6 -13.3256
439 3 35.2 41.6 0 -11.2088
408 4 36.8 40 1.6 -13.2289
441 4 38.4 41.6 0 -13.1004
410 4 40 40 1.6 -13.1072
443 4 41.6 41.6 0 -13.2281
412 3 43.2 40 1.6 -11.2226
445 4 44.8 41.6 0 -13.2635
414 4 46.4 40 1.6 -13.1145
447 1 48 41.6 0 -11.6719
416 3 49.6 40 1.6 -11.1605
418 3 1.6 43.2 1.6 -11.1956
449 1 0 44.8 0 -11.6836
420 3 4.8 43.2 1.6 -11.118
451 1 3.2 44.8 0 -11.7501
422 4 8 43.2 1.6 -13.029
453 4 6.4 44.8 0 -13.2111
424 4 11.2 43.2 1.6 -13.027
455 4 9.6 44.8 0 -13.14
426 2 14.4 43.2 1.6 -9.7508
457 1 12.8 44.8 0 -11.8024
428 3 17.6 43.2 1.6 -10.9942
459 1 16 44.8 0 -11.7537
430 3 20.8 43.2 1.6 -11.2775
461 1 19.2 44.8 0 -11.7981
432 3 24 43.2 1.6 -11.2678
463 1 22.4 44.8 0 -11.8276
465 4 25.6 44.8 0 -13.2679
434 3 27.2 43.2 1.6 -11.1664
467 4 28.8 44.8 0 -13.1754
436 4 30.4 43.2 1.6 -13.2399
469 2 32 44.8 0 -9.70321
438 4 33.6 43.2 1.6 -13.3684
471 3 35.2 44.8 0 -11.2893
440 4 36.8 43.2 1.6 -13.3092
473 2 38.4 44.8 0 -9.70205
442 4 40 43.2 1.6 -13.2204
475 4 41.6 44.8 0 -13.2355
444 3 43.2 43.2 1.6 -11.1773
477 4 44.8 44.8 0 -13.3054
446 4 46.4 43.2 1.6 -13.0658
479 1 48 44.8 0 -11.6224
448 2 49.6 43.2 1.6 -9.68482
450 3 1.6 46.4 1.6 -11.1956
481 1 0 48 0 -11.6351
452 4 4.8 46.4 1.6 -13.209
483 1 3.2 48 0 -11.6798
454 2 8 46.4 1.6 -9.67111
485 4 6.4 48 0 -13.1601
456 3 11.2 46.4 1.6 -11.0779
487 1 9.6 48 0 -11.6285
458 3 14.4 46.4 1.6 -11.1605
489 1 12.8 48 0 -11.7464
460 4 17.6 46.4 1.6 -13.1469
491 1 16 48 0 -11.8109
462 3 20.8 46.4 1.6 -11.1221
493 4 19.2 48 0 -13.2271
464 2 24 46.4 1.6 -9.78932
495 1 22.4 48 0 -11.7564
497 4 25.6 48 0 -13.1862
466 4 27.2 46.4 1.6 -13.2222
499 4 28.8 48 0 -13.0849
468 1 30.4 46.4 1.6 -11.6432
501 2 32 48 0 -9.5984
470 4 33.6 46.4 1.6 -13.269
503 3 35.2 48 0 -11.2632
472 4 36.8 46.4 1.6 -13.3092
505 4 38.4 48 0 -13.2721
474 4 40 46.4 1.6 -13.2283
507 1 41.6 48 0 -11.7423
476 3 43.2 46.4 1.6 -11.2294
509 1 44.8 48 0 -11.745
478 3 46.4 46.4 1.6 -11.1156
511 4 48 48 0 -13.172
480 2 49.6 46.4 1.6 -9.70024
482 3 1.6 49.6 1.6 -11.1096
484 2 4.8 49.6 1.6 -9.70303
486 4 8 49.6 1.6 -13.0648
488 4 11.2 49.6 1.6 -13.0079
490 3 14.4 49.6 1.6 -11.1612
492 3 17.6 49.6 1.6 -11.1546
494 4 20.8 49.6 1.6 -13.2062
496 3 24 49.6 1.6 -11.2408
498 4 27.2 49.6 1.6 -13.2134
500 4 30.4 49.6 1.6 -13.1983
502 1 33.6 49.6 1.6 -11.676
504 4 36.8 49.6 1.6 -13.235
506 3 40 49.6 1.6 -11.2279
508 2 43.2 49.6 1.6 -9.65087
510 4 46.4 49.6 1.6 -13.0744
512 4 49.6 49.6 1.6 -13.0821
513 1 0 0 3.2 -11.7141
514 2 1.6 1.6 4.8 -9.75393
515 4 3.2 0 3.2 -13.2736
516 3 4.8 1.6 4.8 -11.0734
517 1 6.4 0 3.2 -11.7124
518 4 8 1.6 4.8 -13.1571
519 1 9.6 0 3.2 -11.6848
520 3 11.2 1.6 4.8 -11.1966
521 4 12.8 0 3.2 -13.2646
522 3 14.4 1.6 4.8 -11.1244
523 1 16 0 3.2 -11.7659
524 3 17.6 1.6 4.8 -11.2037
525 4 19.2 0 3.2 -13.2536
526 3 20.8 1.6 4.8 -11.2281
527 2 22.4 0 3.2 -9.80548
528 4 24 1.6 4.8 -13.2506
529 2 25.6 0 3.2 -9.75833
530 2 27.2 1.6 4.8 -9.6466
531 4 28.8 0 3.2 -13.2155
532 4 30.4 1.6 4.8 -13.2227
533 3 32 0 3.2 -11.0532
534 4 33.6 1.6 4.8 -13.1097
535 4 35.2 0 3.2 -13.1456
536 2 36.8 1.6 4.8 -9.67494
537 4 38.4 0 3.2 -13.2356
538 4 40 1.6 4.8 -13.1496
539 1 41.6 0 3.2 -11.687
540 2 43.2 1.6 4.8 -9.65073
541 1 44.8 0 3.2 -11.6715
542 3 46.4 1.6 4.8 -11.2005
543 1 48 0 3.2 -11.7378
544 3 49.6 1.6 4.8 -11.1613
545 1 0 3.2 3.2 -11.8121
546 3 1.6 4.8 4.8 -11.2054
547 1 3.2 3.2 3.2 -11.7763
548 3 4.8 4.8 4.8 -11.2397
549 4 6.4 3.2 3.2 -13.2243
550 2 8 4.8 4.8 -9.67133
551 4 9.6 3.2 3.2 -13.2231
552 4 11.2 4.8 4.8 -13.1977
553 1 12.8 3.2 3.2 -11.7218
554 3 14.4 4.8 4.8 -11.1653
555 1 16 3.2 3.2 -11.6793
556 3 17.6 4.8 4.8 -11.2057
557 1 19.2 3.2 3.2 -11.7476
558 3 20.8 4.8 4.8 -11.071
559 4 22.4 3.2 3.2 -13.277
560 4 24 4.8 4.8 -13.1351
561 4 25.6 3.2 3.2 -13.1922
562 1 27.2 4.8 4.8 -11.5744
563 4 28.8 3.2 3.2 -13.2339
564 2 30.4 4.8 4.8 -9.73848
565 2 32 3.2 3.2 -9.73756
566 4 33.6 4.8 4.8 -13.2125
567 4 35.2 3.2 3.2 -13.2208
568 3 36.8 4.8 4.8 -11.2212
569 4 38.4 3.2 3.2 -13.2961
570 2 40 4.8 4.8 -9.72787
571 1 41.6 3.2 3.2 -11.7333
572 3 43.2 4.8 4.8 -11.1619
573 1 44.8 3.2 3.2 -11.7848
574 3 46.4 4.8 4.8 -11.2031
575 1 48 3.2 3.2 -11.7799
576 3 49.6 4.8 4.8 -11.1656
577 1 0 6.4 3.2 -11.7178
578 3 1.6 8 4.8 -11.082
579 1 3.2 6.4 3.2 -11.7997
580 3 4.8 8 4.8 -11.1989
581 4 6.4 6.4 3.2 -13.2983
582 2 8 8 4.8 -9.75406
583 4 9.6 6.4 3.2 -13.2654
584 3 11.2 8 4.8 -11.2349
585 1 12.8 6.4 3.2 -11.7662
586 3 14.4 8 4.8 -11.277
587 1 16 6.4 3.2 -11.7464
588 3 17.6 8 4.8 -11.1142
589 1 19.2 6.4 3.2 -11.6973
590 4 20.8 8 4.8 -13.1136
591 1 22.4 6.4 3.2 -11.6978
592 3 24 8 4.8 -11.0762
593 4 25.6 6.4 3.2 -13.1889
594 2 27.2 8 4.8 -9.56974
595 2 28.8 6.4 3.2 -9.70674
596 4 30.4 8 4.8 -13.176
597 4 32 6.4 3.2 -13.2178
598 2 33.6 8 4.8 -9.6726
599 4 35.2 6.4 3.2 -13.1866
600 4 36.8 8 4.8 -13.0788
601 4 38.4 6.4 3.2 -13.2252
602 4 40 8 4.8 -13.1142
603 1 41.6 6.4 3.2 -11.7671
604 2 43.2 8 4.8 -9.81185
605 4 44.8 6.4 3.2 -13.3077
606 3 46.4 8 4.8 -11.2963
607 1 48 6.4 3.2 -11.7217
608 4 49.6 8 4.8 -13.1508
609 1 0 9.6 3.2 -11.7142
610 3 1.6 11.2 4.8 -11.1936
611 1 3.2 9.6 3.2 -11.7269
612 4 4.8 11.2 4.8 -13.0729
613 4 6.4 9.6 3.2 -13.1569
614 4 8 11.2 4.8 -12.9782
615 4 9.6 9.6 3.2 -13.2671
616 3 11.2 11.2 4.8 -11.1162
617 1 12.8 9.6 3.2 -11.8279
618 3 14.4 11.2 4.8 -11.2039
619 1 16 9.6 3.2 -11.7446
620 4 17.6 11.2 4.8 -13.1595
621 4 19.2 9.6 3.2 -13.1887
622 3 20.8 11.2 4.8 -11.1951
623 1 22.4 9.6 3.2 -11.7703
624 3 24 11.2 4.8 -11.198
625 1 25.6 9.6 3.2 -11.7297
626 4 27.2 11.2 4.8 -13.2747
627 4 28.8 9.6 3.2 -13.2369
628 3 30.4 11.2 4.8 -11.0919
629 4 32 9.6 3.2 -13.1947
630 2 33.6 11.2 4.8 -9.79335
631 1 35.2 9.6 3.2 -11.6284
632 3 36.8 11.2 4.8 -11.2216
633 1 38.4 9.6 3.2 -11.6993
634 3 40 11.2 4.8 -11.1916
635 4 41.6 9.6 3.2 -13.2433
636 2 43.2 11.2 4.8 -9.73124
637 4 44.8 9.6 3.2 -13.2784
638 3 46.4 11.2 4.8 -11.2577
639 4 48 9.6 3.2 -13.2928
640 3 49.6 11.2 4.8 -11.2259
641 1 0 12.8 3.2 -11.7845
642 3 1.6 14.4 4.8 -11.2718
643 4 3.2 12.8 3.2 -13.1477
644 3 4.8 14.4 4.8 -11.1473
645 1 6.4 12.8 3.2 -11.6561
646 3 8 14.4 4.8 -11.2569
647 4 9.6 12.8 3.2 -13.2476
648 4 11.2 14.4 4.8 -13.2722
649 1 12.8 12.8 3.2 -11.7192
650 3 14.4 14.4 4.8 -11.0363
651 1 16 12.8 3.2 -11.705
652 3 17.6 14.4 4.8 -11.1598
653 1 19.2 12.8 3.2 -11.7981
654 3 20.8 14.4 4.8 -11.2359
655 1 22.4 12.8 3.2 -11.7974
656 3 24 14.4 4.8 -11.1632
657 4 25.6 12.8 3.2 -13.2282
658 3 27.2 14.4 4.8 -11.1077
659 4 28.8 12.8 3.2 -13.3247
660 4 30.4 14.4 4.8 -13.3119
661 4 32 12.8 3.2 -13.2552
662 4 33.6 14.4 4.8 -13.2354
663 4 35.2 12.8 3.2 -13.2613
664 3 36.8 14.4 4.8 -11.2881
665 1 38.4 12.8 3.2 -11.7923
666 3 40 14.4 4.8 -11.1943
667 1 41.6 12.8 3.2 -11.706
668 3 43.2 14.4 4.8 -11.1212
669 1 44.8 12.8 3.2 -11.663
670 2 46.4 14.4 4.8 -9.71337
671 4 48 12.8 3.2 -13.2745
672 3 49.6 14.4 4.8 -11.1986
673 1 0 16 3.2 -11.8146
674 3 1.6 17.6 4.8 -11.2778
675 4 3.2 16 3.2 -13.3049
676 3 4.8 17.6 4.8 -11.2602
677 4 6.4 16 3.2 -13.3468
678 2 8 17.6 4.8 -9.81664
679 4 9.6 16 3.2 -13.3028
680 3 11.2 17.6 4.8 -11.0761
681 1 12.8 16 3.2 -11.7149
682 2 14.4 17.6 4.8 -9.6778
683 1 16 16 3.2 -11.7707
684 3 17.6 17.6 4.8 -11.1604
685 1 19.2 16 3.2 -11.7636
686 4 20.8 17.6 4.8 -13.1148
687 1 22.4 16 3.2 -11.678
688 2 24 17.6 4.8 -9.75897
689 1 25.6 16 3.2 -11.6795
690 4 27.2 17.6 4.8 -13.1591
691 4 28.8 16 3.2 -13.305
692 3 30.4 17.6 4.8 -11.1893
693 4 32 16 3.2 -13.237
694 3 33.6 17.6 4.8 -11.1837
695 4 35.2 16 3.2 -13.2641
696 4 36.8 17.6 4.8 -13.1979
697 4 38.4 16 3.2 -13.2492
698 4 40 17.6 4.8 -13.2862
699 1 41.6 16 3.2 -11.8065
700 3 43.2 17.6 4.8 -11.1994
701 1 44.8 16 3.2 -11.6826
702 2 46.4 17.6 4.8 -9.62091
703 1 48 16 3.2 -11.7185
704 3 49.6 17.6 4.8 -11.1244
705 1 0 19.2 3.2 -11.7454
706 3 1.6 20.8 4.8 -11.0354
707 1 3.2 19.2 3.2 -11.7171
708 4 4.8 20.8 4.8 -13.1614
709 4 6.4 19.2 3.2 -13.1629
710 2 8 20.8 4.8 -9.56255
711 1 9.6 19.2 3.2 -11.6963
712 3 11.2 20.8 4.8 -11.238
713 1 12.8 19.2 3.2 -11.7238
714 2 14.4 20.8 4.8 -9.6204
715 1 16 19.2 3.2 -11.7055
716 2 17.6 20.8 4.8 -9.66232
717 1 19.2 19.2 3.2 -11.6191
718 4 20.8 20.8 4.8 -13.2504
719 4 22.4 19.2 3.2 -13.239
720 3 24 20.8 4.8 -11.2862
721 4 25.6 19.2 3.2 -13.3096
722 4 27.2 20.8 4.8 -13.2396
723 4 28.8 19.2 3.2 -13.2115
724 3 30.4 20.8 4.8 -11.1973
725 1 32 19.2 3.2 -11.6578
726 3 33.6 20.8 4.8 -11.1587
727 4 35.2 19.2 3.2 -13.2042
728 2 36.8 20.8 4.8 -9.76455
729 4 38.4 19.2 3.2 -13.195
730 3 40 20.8 4.8 -11.2182
731 4 41.6 19.2 3.2 -13.3164
732 2 43.2 20.8 4.8 -9.81215
733 1 44.8 19.2 3.2 -11.6709
734 4 46.4 20.8 4.8 -12.9806
735 1 48 19.2 3.2 -11.6049
736 4 49.6 20.8 4.8 -13.027
737 4 0 22.4 3.2 -13.2081
738 2 1.6 24 4.8 -9.72856
739 4 3.2 22.4 3.2 -13.1907
740 3 4.8 24 4.8 -11.081
741 1 6.4 22.4 3.2 -11.5977
742 4 8 24 4.8 -13.1072
743 1 9.6 22.4 3.2 -11.7043
744 3 11.2 24 4.8 -11.3034
745 1 12.8 22.4 3.2 -11.7654
746 3 14.4 24 4.8 -11.1179
747 1 16 22.4 3.2 -11.6223
748 4 17.6 24 4.8 -13.11
749 4 19.2 22.4 3.2 -13.1927
750 4 20.8 24 4.8 -13.2829
751 3 22.4 22.4 3.2 -11.2871
752 4 24 24 4.8 -13.3405
753 4 25.6 22.4 3.2 -13.2849
754 3 27.2 24 4.8 -11.2496
755 4 28.8 22.4 3.2 -13.2459
756 3 30.4 24 4.8 -11.2681
757 1 32 22.4 3.2 -11.7326
758 3 33.6 24 4.8 -11.2374
759 1 35.2 22.4 3.2 -11.6362
760 4 36.8 24 4.8 -13.1604
761 4 38.4 22.4 3.2 -13.1071
762 3 40 24 4.8 -11.1846
763 4 41.6 22.4 3.2 -13.3008
764 3 43.2 24 4.8 -11.1144
765 4 44.8 22.4 3.2 -13.2434
766 2 46.4 24 4.8 -9.72651
767 4 48 22.4 3.2 -13.1526
768 4 49.6 24 4.8 -13.0376
769 4 0 25.6 3.2 -13.1162
771 1 3.2 25.6 3.2 -11.6935
773 1 6.4 25.6 3.2 -11.6628
775 4 9.6 25.6 3.2 -13.2662
777 1 12.8 25.6 3.2 -11.7385
779 4 16 25.6 3.2 -13.1737
781 3 19.2 25.6 3.2 -11.1763
783 2 22.4 25.6 3.2 -9.7605
785 4 25.6 25.6 3.2 -13.2863
787 4 28.8 25.6 3.2 -13.3083
789 1 32 25.6 3.2 -11.8113
791 4 35.2 25.6 3.2 -13.241
793 1 38.4 25.6 3.2 -11.6894
795 4 41.6 25.6 3.2 -13.1615
797 1 44.8 25.6 3.2 -11.7398
799 1 48 25.6 3.2 -11.6478
770 2 1.6 27.2 4.8 -9.69772
801 4 0 28.8 3.2 -13.1789
772 3 4.8 27.2 4.8 -11.1255
803 1 3.2 28.8 3.2 -11.7536
774 3 8 27.2 4.8 -11.1883
805 1 6.4 28.8 3.2 -11.6913
776 3 11.2 27.2 4.8 -11.2552
807 4 9.6 28.8 3.2 -13.2479
778 2 14.4 27.2 4.8 -9.76267
809 4 12.8 28.8 3.2 -13.1499
780 4 17.6 27.2 4.8 -13.2438
811 2 16 28.8 3.2 -9.76695
782 4 20.8 27.2 4.8 -13.2327
813 3 19.2 28.8 3.2 -11.227
784 4 24 27.2 4.8 -13.2215
815 4 22.4 28.8 3.2 -13.2038
817 3 25.6 28.8 3.2 -11.1664
786 3 27.2 27.2 4.8 -11.2374
819 4 28.8 28.8 3.2 -13.2297
788 3 30.4 27.2 4.8 -11.2259
821 1 32 28.8 3.2 -11.7386
790 3 33.6 27.2 4.8 -11.3105
823 1 35.2 28.8 3.2 -11.7807
792 3 36.8 27.2 4.8 -11.0738
825 4 38.4 28.8 3.2 -13.1975
794 4 40 27.2 4.8 -13.1588
827 1 41.6 28.8 3.2 -11.6951
796 4 43.2 27.2 4.8 -13.0634
829 1 44.8 28.8 3.2 -11.7803
798 3 46.4 27.2 4.8 -11.0827
831 1 48 28.8 3.2 -11.6714
800 4 49.6 27.2 4.8 -13.0334
802 3 1.6 30.4 4.8 -11.2304
833 1 0 32 3.2 -11.7559
804 3 4.8 30.4 4.8 -11.2037
835 1 3.2 32 3.2 -11.7997
806 3 8 30.4 4.8 -11.236
837 1 6.4 32 3.2 -11.7003
808 2 11.2 30.4 4.8 -9.73062
839 4 9.6 32 3.2 -13.2389
810 4 14.4 30.4 4.8 -13.1325
841 1 12.8 32 3.2 -11.6932
812 4 17.6 30.4 4.8 -13.1921
843 4 16 32 3.2 -13.159
814 1 20.8 30.4 4.8 -11.7041
845 2 19.2 32 3.2 -9.76375
816 4 24 30.4 4.8 -13.1517
847 3 22.4 32 3.2 -11.0506
849 4 25.6 32 3.2 -13.2089
818 1 27.2 30.4 4.8 -11.6996
851 2 28.8 32 3.2 -9.70601
820 4 30.4 30.4 4.8 -13.2016
853 4 32 32 3.2 -13.1689
822 3 33.6 30.4 4.8 -11.2335
855 1 35.2 32 3.2 -11.6468
824 3 36.8 30.4 4.8 -11.1952
857 1 38.4 32 3.2 -11.6037
826 3 40 30.4 4.8 -11.0359
859 1 41.6 32 3.2 -11.6977
828 3 43.2 30.4 4.8 -11.1662
861 1 44.8 32 3.2 -11.8282
830 3 46.4 30.4 4.8 -11.1656
863 1 48 32 3.2 -11.7182
832 4 49.6 30.4 4.8 -13.0694
834 2 1.6 33.6 4.8 -9.77375
865 1 0 35.2 3.2 -11.7637
836 3 4.8 33.6 4.8 -11.1221
867 1 3.2 35.2 3.2 -11.6874
838 3 8 33.6 4.8 -11.1965
869 1 6.4 35.2 3.2 -11.6695
840 3 11.2 33.6 4.8 -11.264
871 4 9.6 35.2 3.2 -13.329
842 3 14.4 33.6 4.8 -11.1563
873 1 12.8 35.2 3.2 -11.8207
844 4 17.6 33.6 4.8 -13.1824
875 4 16 35.2 3.2 -13.2686
846 2 20.8 33.6 4.8 -9.73089
877 1 19.2 35.2 3.2 -11.7169
848 4 24 33.6 4.8 -13.2407
879 4 22.4 35.2 3.2 -13.3381
881 4 25.6 35.2 3.2 -13.1819
850 4 27.2 33.6 4.8 -13.1659
883 2 28.8 35.2 3.2 -9.67409
852 4 30.4 33.6 4.8 -13.1422
885 4 32 35.2 3.2 -13.2106
854 4 33.6 33.6 4.8 -13.2117
887 4 35.2 35.2 3.2 -13.1685
856 4 36.8 33.6 4.8 -13.1499
889 4 38.4 35.2 3.2 -13.0784
858 2 40 33.6 4.8 -9.67201
891 4 41.6 35.2 3.2 -13.2232
860 3 43.2 33.6 4.8 -11.1938
893 4 44.8 35.2 3.2 -13.3033
862 3 46.4 33.6 4.8 -11.1216
895 1 48 35.2 3.2 -11.7116
864 2 49.6 33.6 4.8 -9.65642
866 3 1.6 36.8 4.8 -11.1254
897 1 0 38.4 3.2 -11.8121
868 2 4.8 36.8 4.8 -9.58766
899 1 3.2 38.4 3.2 -11.735
870 3 8 36.8 4.8 -11.304
901 1 6.4 38.4 3.2 -11.7343
872 3 11.2 36.8 4.8 -11.1821
903 1 9.6 38.4 3.2 -11.7514
874 4 14.4 36.8 4.8 -13.3204
905 4 12.8 38.4 3.2 -13.2105
876 3 17.6 36.8 4.8 -11.2262
907 4 16 38.4 3.2 -13.3552
878 3 20.8 36.8 4.8 -11.3031
909 1 19.2 38.4 3.2 -11.8101
880 3 24 36.8 4.8 -11.177
911 1 22.4 38.4 3.2 -11.8446
913 4 25.6 38.4 3.2 -13.1241
882 4 27.2 36.8 4.8 -13.1621
915 1 28.8 38.4 3.2 -11.524
884 4 30.4 36.8 4.8 -13.2064
917 4 32 38.4 3.2 -13.2334
886 4 33.6 36.8 4.8 -13.2393
919 4 35.2 38.4 3.2 -13.2218
888 4 36.8 36.8 4.8 -13.228
921 3 38.4 38.4 3.2 -11.1288
890 4 40 36.8 4.8 -13.22
923 4 41.6 38.4 3.2 -13.2321
892 2 43.2 36.8 4.8 -9.79672
925 4 44.8 38.4 3.2 -13.2405
894 4 46.4 36.8 4.8 -13.1097
927 1 48 38.4 3.2 -11.6768
896 2 49.6 36.8 4.8 -9.64567
898 3 1.6 40 4.8 -11.1648
929 1 0 41.6 3.2 -11.8174
900 2 4.8 40 4.8 -9.68791
931 1 3.2 41.6 3.2 -11.7333
902 3 8 40 4.8 -11.2016
933 1 6.4 41.6 3.2 -11.7297
904 4 11.2 40 4.8 -13.1185
935 1 9.6 41.6 3.2 -11.5772
906 3 14.4 40 4.8 -11.1922
937 1 12.8 41.6 3.2 -11.6909
908 3 17.6 40 4.8 -11.2271
939 1 16 41.6 3.2 -11.7449
910 3 20.8 40 4.8 -11.2328
941 1 19.2 41.6 3.2 -11.7662
912 4 24 40 4.8 -13.2431
943 4 22.4 41.6 3.2 -13.3062
945 4 25.6 41.6 3.2 -13.2758
914 4 27.2 40 4.8 -13.1473
947 4 28.8 41.6 3.2 -13.2138
916 1 30.4 40 4.8 -11.6548
949 3 32 41.6 3.2 -11.0912
918 4 33.6 40 4.8 -13.2425
951 3 35.2 41.6 3.2 -11.3212
920 4 36.8 40 4.8 -13.2704
953 4 38.4 41.6 3.2 -13.1669
922 4 40 40 4.8 -13.1553
955 4 41.6 41.6 3.2 -13.1811
924 4 43.2 40 4.8 -13.1728
957 4 44.8 41.6 3.2 -13.2075
926 2 46.4 40 4.8 -9.6933
959 1 48 41.6 3.2 -11.671
928 3 49.6 40 4.8 -11.1654
930 2 1.6 43.2 4.8 -9.68852
961 4 0 44.8 3.2 -13.2454
932 4 4.8 43.2 4.8 -13.1146
963 4 3.2 44.8 3.2 -13.1681
934 3 8 43.2 4.8 -11.155
965 4 6.4 44.8 3.2 -13.2157
936 3 11.2 43.2 4.8 -11.0763
967 1 9.6 44.8 3.2 -11.7269
938 3 14.4 43.2 4.8 -11.1993
969 4 12.8 44.8 3.2 -13.2554
940 2 17.6 43.2 4.8 -9.71498
971 1 16 44.8 3.2 -11.7436
942 3 20.8 43.2 4.8 -11.1943
973 1 19.2 44.8 3.2 -11.7685
944 4 24 43.2 4.8 -13.1605
975 1 22.4 44.8 3.2 -11.7574
977 4 25.6 44.8 3.2 -13.2134
946 4 27.2 43.2 4.8 -13.3004
979 3 28.8 44.8 3.2 -11.2038
948 4 30.4 43.2 4.8 -13.2553
981 4 32 44.8 3.2 -13.2337
950 4 33.6 43.2 4.8 -13.3264
983 3 35.2 44.8 3.2 -11.3618
952 1 36.8 43.2 4.8 -11.7967
985 3 38.4 44.8 3.2 -11.1842
954 4 40 43.2 4.8 -13.1619
987 4 41.6 44.8 3.2 -13.2722
956 4 43.2 43.2 4.8 -13.187
989 1 44.8 44.8 3.2 -11.7173
958 3 46.4 43.2 4.8 -11.0759
991 1 48 44.8 3.2 -11.6963
960 3 49.6 43.2 4.8 -11.1648
962 4 1.6 46.4 4.8 -12.9762
993 4 0 48 3.2 -13.2031
964 4 4.8 46.4 4.8 -13.0727
995 4 3.2 48 3.2 -13.1995
966 3 8 46.4 4.8 -11.2924
997 4 6.4 48 3.2 -13.2351
968 2 11.2 46.4 4.8 -9.81463
999 1 9.6 48 3.2 -11.6847
970 3 14.4 46.4 4.8 -11.2005
1001 1 12.8 48 3.2 -11.801
972 3 17.6 46.4 4.8 -11.1224
1003 1 16 48 3.2 -11.7796
974 3 20.8 46.4 4.8 -11.2305
1005 1 19.2 48 3.2 -11.7142
976 4 24 46.4 4.8 -13.1329
1007 4 22.4 48 3.2 -13.2441
1009 4 25.6 48 3.2 -13.2589
978 4 27.2 46.4 4.8 -13.2486
1011 3 28.8 48 3.2 -11.1399
980 4 30.4 46.4 4.8 -13.2868
1013 4 32 48 3.2 -13.2036
982 4 33.6 46.4 4.8 -13.3225
1015 3 35.2 48 3.2 -11.1857
984 1 36.8 46.4 4.8 -11.7961
1017 4 38.4 48 3.2 -13.2669
986 4 40 46.4 4.8 -13.267
1019 4 41.6 48 3.2 -13.214
988 2 43.2 46.4 4.8 -9.63313
1021 1 44.8 48 3.2 -11.6657
990 2 46.4 46.4 4.8 -9.71627
1023 4 48 48 3.2 -13.183
992 2 49.6 46.4 4.8 -9.66576
994 4 1.6 49.6 4.8 -13.2029
996 3 4.8 49.6 4.8 -11.1471
998 3 8 49.6 4.8 -11.1485
1000 3 11.2 49.6 4.8 -11.2315
1002 3 14.4 49.6 4.8 -11.3109
1004 3 17.6 49.6 4.8 -11.2034
1006 4 20.8 49.6 4.8 -13.2125
1008 2 24 49.6 4.8 -9.73245
1010 1 27.2 49.6 4.8 -11.6278
1012 4 30.4 49.6 4.8 -13.2372
1014 1 33.6 49.6 4.8 -11.7158
1016 4 36.8 49.6 4.8 -13.2101
1018 3 40 49.6 4.8 -11.1429
1020 4 43.2 49.6 4.8 -13.1128
1022 3 46.4 49.6 4.8 -11.0689
1024 2 49.6 49.6 4.8 -9.73285
1025 4 0 0 6.4 -13.2363
1026 2 1.6 1.6 8 -9.6655
1027 4 3.2 0 6.4 -13.1811
1028 4 4.8 1.6 8 -13.0347
1029 1 6.4 0 6.4 -11.6229
1030 2 8 1.6 8 -9.5976
1031 1 9.6 0 6.4 -11.7516
1032 3 11.2 1.6 8 -11.2337
1033 1 12.8 0 6.4 -11.8062
1034 4 14.4 1.6 8 -13.1511
1035 1 16 0 6.4 -11.7798
1036 3 17.6 1.6 8 -11.1979
1037 1 19.2 0 6.4 -11.7972
1038 3 20.8 1.6 8 -11.2696
1039 1 22.4 0 6.4 -11.7459
1040 3 24 1.6 8 -11.216
1041 4 25.6 0 6.4 -13.1532
1042 2 27.2 1.6 8 -9.73871
1043 1 28.8 0 6.4 -11.5353
1044 4 30.4 1.6 8 -13.1378
1045 2 32 0 6.4 -9.70862
1046 4 33.6 1.6 8 -13.1559
1047 4 35.2 0 6.4 -13.1425
1048 4 36.8 1.6 8 -13.2247
1049 4 38.4 0 6.4 -13.2342
1050 3 40 1.6 8 -11.1563
1051 1 41.6 0 6.4 -11.737
1052 3 43.2 1.6 8 -11.1611
1053 4 44.8 0 6.4 -13.2499
1054 4 46.4 1.6 8 -13.1566
1055 4 48 0 6.4 -13.2389
1056 4 49.6 1.6 8 -13.116
1057 1 0 3.2 6.4 -11.7392
1058 3 1.6 4.8 8 -11.1244
1059 1 3.2 3.2 6.4 -11.739
1060 3 4.8 4.8 8 -11.165
1061 1 6.4 3.2 6.4 -11.6782
1062 4 8 4.8 8 -13.0787
1063 4 9.6 3.2 6.4 -13.2122
1064 3 11.2 4.8 8 -11.1884
1065 1 12.8 3.2 6.4 -11.7503
1066 3 14.4 4.8 8 -11.2346
1067 1 16 3.2 6.4 -11.7978
1068 3 17.6 4.8 8 -11.2351
1069 1 19.2 3.2 6.4 -11.8149
1070 4 20.8 4.8 8 -13.188
1071 4 22.4 3.2 6.4 -13.2758
1072 3 24 4.8 8 -11.1128
1073 4 25.6 3.2 6.4 -13.1934
1074 2 27.2 4.8 8 -9.72705
1075 2 28.8 3.2 6.4 -9.72434
1076 3 30.4 4.8 8 -11.2921
1077 4 32 3.2 6.4 -13.2518
1078 3 33.6 4.8 8 -11.1893
1079 1 35.2 3.2 6.4 -11.6655
1080 3 36.8 4.8 8 -11.1537
1081 4 38.4 3.2 6.4 -13.2731
1082 3 40 4.8 8 -11.238
1083 1 41.6 3.2 6.4 -11.7334
1084 3 43.2 4.8 8 -11.2441
1085 1 44.8 3.2 6.4 -11.7731
1086 3 46.4 4.8 8 -11.1651
1087 1 48 3.2 6.4 -11.732
1088 3 49.6 4.8 8 -11.1637
1089 1 0 6.4 6.4 -11.7285
1090 4 1.6 8 8 -13.1573
1091 1 3.2 6.4 6.4 -11.78
1092 3 4.8 8 8 -11.1255
1093 1 6.4 6.4 6.4 -11.6865
1094 4 8 8 8 -13.0298
1095 4 9.6 6.4 6.4 -13.1792
1096 3 11.2 8 8 -11.1985
1097 1 12.8 6.4 6.4 -11.8105
1098 3 14.4 8 8 -11.2362
1099 1 16 6.4 6.4 -11.8555
1100 3 17.6 8 8 -11.1601
1101 1 19.2 6.4 6.4 -11.666
1102 4 20.8 8 8 -13.0303
1103 1 22.4 6.4 6.4 -11.6538