ITEM: TIMESTEP
0
ITEM: NUMBER OF ATOMS
8192
ITEM: BOX BOUNDS pp pp pp
0.0000000000000000e+00 5.1200000000000003e+01
0.0000000000000000e+00 5.1200000000000003e+01
0.0000000000000000e+00 5.1200000000000003e+01
ITEM: ATOMS id type x y z c_eng
1 1 0 0 0 -11.7492
2 4 1.6 1.6 1.6 -13.0601
3 1 3.2 0 0 -11.741
4 3 4.8 1.6 1.6 -11.107
5 4 6.4 0 0 -13.2705
6 3 8 1.6 1.6 -11.1476
7 4 9.6 0 0 -13.3323
8 3 11.2 1.6 1.6 -11.1869
9 1 12.8 0 0 -11.7804
10 2 14.4 1.6 1.6 -9.72441
11 1 16 0 0 -11.6312
12 4 17.6 1.6 1.6 -13.1145
13 1 19.2 0 0 -11.7072
14 3 20.8 1.6 1.6 -11.1958
15 1 22.4 0 0 -11.7407
16 2 24 1.6 1.6 -9.73309
17 4 25.6 0 0 -13.2066
18 4 27.2 1.6 1.6 -13.2425
19 2 28.8 0 0 -9.81008
20 3 30.4 1.6 1.6 -11.2301
21 4 32 0 0 -13.2891
22 4 33.6 1.6 1.6 -13.2588
23 3 35.2 0 0 -11.2208
24 4 36.8 1.6 1.6 -13.2344
25 1 38.4 0 0 -11.6822
26 3 40 1.6 1.6 -11.2249
27 1 41.6 0 0 -11.8247
28 3 43.2 1.6 1.6 -11.2697
29 1 44.8 0 0 -11.7977
30 3 46.4 1.6 1.6 -11.1241
31 4 48 0 0 -13.2818
32 3 49.6 1.6 1.6 -11.1615
33 1 0 3.2 0 -11.6874
34 3 1.6 4.8 1.6 -11.039
35 1 3.2 3.2 0 -11.6644
36 4 4.8 4.8 1.6 -13.1154
37 1 6.4 3.2 0 -11.66
38 4 8 4.8 1.6 -13.0742
39 1 9.6 3.2 0 -11.7071
40 4 11.2 4.8 1.6 -13.1226
41 1 12.8 3.2 0 -11.768
42 3 14.4 4.8 1.6 -11.148
43 4 16 3.2 0 -13.2611
44 3 17.6 4.8 1.6 -11.1834
45 4 19.2 3.2 0 -13.214
46 2 20.8 4.8 1.6 -9.78669
47 1 22.4 3.2 0 -11.7401
48 3 24 4.8 1.6 -11.2274
49 1 25.6 3.2 0 -11.7701
50 3 27.2 4.8 1.6 -11.3871
51 4 28.8 3.2 0 -13.3521
52 3 30.4 4.8 1.6 -11.2425
53 4 32 3.2 0 -13.179
54 4 33.6 4.8 1.6 -13.2092
55 4 35.2 3.2 0 -13.2281
56 3 36.8 4.8 1.6 -11.0653
57 1 38.4 3.2 0 -11.753
58 3 40 4.8 1.6 -11.1958
59 4 41.6 3.2 0 -13.2827
60 4 43.2 4.8 1.6 -13.1906
61 1 44.8 3.2 0 -11.7345
62 3 46.4 4.8 1.6 -11.0812
63 1 48 3.2 0 -11.7376
64 3 49.6 4.8 1.6 -11.166
65 1 0 6.4 0 -11.6752
66 2 1.6 8 1.6 -9.72337
67 1 3.2 6.4 0 -11.7527
68 3 4.8 8 1.6 -11.1103
69 4 6.4 6.4 0 -13.2425
70 3 8 8 1.6 -11.1772
71 4 9.6 6.4 0 -13.2645
72 3 11.2 8 1.6 -11.1433
73 1 12.8 6.4 0 -11.7581
74 4 14.4 8 1.6 -13.0164
75 4 16 6.4 0 -13.2486
76 4 17.6 8 1.6 -13.1473
77 4 19.2 6.4 0 -13.3016
78 2 20.8 8 1.6 -9.73162
79 1 22.4 6.4 0 -11.7213
80 4 24 8 1.6 -13.1934
81 4 25.6 6.4 0 -13.3622
82 3 27.2 8 1.6 -11.0513
83 4 28.8 6.4 0 -13.2454
84 4 30.4 8 1.6 -13.2784
85 4 32 6.4 0 -13.2402
86 3 33.6 8 1.6 -11.0505
87 4 35.2 6.4 0 -13.202
88 4 36.8 8 1.6 -13.0832
89 4 38.4 6.4 0 -13.2367
90 2 40 8 1.6 -9.63168
91 1 41.6 6.4 0 -11.7317
92 3 43.2 8 1.6 -10.9879
93 1 44.8 6.4 0 -11.724
94 4 46.4 8 1.6 -13.1149
95 1 48 6.4 0 -11.677
96 2 49.6 8 1.6 -9.69313
97 4 0 9.6 0 -13.1762
98 4 1.6 11.2 1.6 -13.1852
99 1 3.2 9.6 0 -11.6935
100 4 4.8 11.2 1.6 -13.0227
101 1 6.4 9.6 0 -11.7089
102 4 8 11.2 1.6 -13.1579
103 4 9.6 9.6 0 -13.2763
104 4 11.2 11.2 1.6 -13.2002
105 1 12.8 9.6 0 -11.721
106 2 14.4 11.2 1.6 -9.65625
107 1 16 9.6 0 -11.7306
108 3 17.6 11.2 1.6 -11.1403
109 4 19.2 9.6 0 -13.3247
110 3 20.8 11.2 1.6 -11.2572
111 1 22.4 9.6 0 -11.755
112 3 24 11.2 1.6 -11.2223
113 4 25.6 9.6 0 -13.2426
114 4 27.2 11.2 1.6 -13.1675
115 1 28.8 9.6 0 -11.6187
116 3 30.4 11.2 1.6 -11.0627
117 4 32 9.6 0 -13.2062
118 4 33.6 11.2 1.6 -13.1263
119 4 35.2 9.6 0 -13.1494
120 4 36.8 11.2 1.6 -13.1418
121 4 38.4 9.6 0 -13.1424
122 2 40 11.2 1.6 -9.73384
123 4 41.6 9.6 0 -13.2131
124 4 43.2 11.2 1.6 -13.1648
125 1 44.8 9.6 0 -11.7559
126 2 46.4 11.2 1.6 -9.63457
127 4 48 9.6 0 -13.2093
128 3 49.6 11.2 1.6 -11.1412
129 4 0 12.8 0 -13.3357
130 3 1.6 14.4 1.6 -11.198
131 1 3.2 12.8 0 -11.6325
132 2 4.8 14.4 1.6 -9.61794
133 1 6.4 12.8 0 -11.6287
134 2 8 14.4 1.6 -9.7547
135 4 9.6 12.8 0 -13.321
136 3 11.2 14.4 1.6 -11.2247
137 4 12.8 12.8 0 -13.2457
138 2 14.4 14.4 1.6 -9.65707
139 4 16 12.8 0 -13.2456
140 4 17.6 14.4 1.6 -13.1858
141 4 19.2 12.8 0 -13.3496
142 3 20.8 14.4 1.6 -11.2241
143 1 22.4 12.8 0 -11.7122
144 4 24 14.4 1.6 -13.1136
145 4 25.6 12.8 0 -13.124
146 4 27.2 14.4 1.6 -13.1617
147 4 28.8 12.8 0 -13.1141
148 2 30.4 14.4 1.6 -9.73927
149 4 32 12.8 0 -13.1571
150 4 33.6 14.4 1.6 -13.0282
151 4 35.2 12.8 0 -13.0962
152 4 36.8 14.4 1.6 -13.2459
153 3 38.4 12.8 0 -11.1201
154 2 40 14.4 1.6 -9.69811
155 4 41.6 12.8 0 -13.2103
156 4 43.2 14.4 1.6 -13.034
157 1 44.8 12.8 0 -11.6454
158 4 46.4 14.4 1.6 -13.0763
159 4 48 12.8 0 -13.2394
160 3 49.6 14.4 1.6 -11.2279
161 1 0 16 0 -11.7995
162 3 1.6 17.6 1.6 -11.2426
163 1 3.2 16 0 -11.7334
164 3 4.8 17.6 1.6 -11.2018
165 1 6.4 16 0 -11.7314
166 3 8 17.6 1.6 -11.2299
167 4 9.6 16 0 -13.2976
168 2 11.2 17.6 1.6 -9.70195
169 1 12.8 16 0 -11.6775
170 3 14.4 17.6 1.6 -11.1545
171 1 16 16 0 -11.6094
172 4 17.6 17.6 1.6 -13.1535
173 4 19.2 16 0 -13.2026
174 3 20.8 17.6 1.6 -11.2288
175 1 22.4 16 0 -11.6813
176 3 24 17.6 1.6 -11.0364
177 1 25.6 16 0 -11.5679
178 3 27.2 17.6 1.6 -11.0716
179 4 28.8 16 0 -13.2375
180 2 30.4 17.6 1.6 -9.73262
181 2 32 16 0 -9.76654
182 4 33.6 17.6 1.6 -13.2274
183 3 35.2 16 0 -11.1019
184 2 36.8 17.6 1.6 -9.76547
185 2 38.4 16 0 -9.76576
186 4 40 17.6 1.6 -12.9538
187 1 41.6 16 0 -11.6271
188 2 43.2 17.6 1.6 -9.69468
189 1 44.8 16 0 -11.6353
190 2 46.4 17.6 1.6 -9.72795
191 4 48 16 0 -13.1703
192 3 49.6 17.6 1.6 -11.2016
193 1 0 19.2 0 -11.7975
194 3 1.6 20.8 1.6 -11.2438
195 1 3.2 19.2 0 -11.766
196 3 4.8 20.8 1.6 -11.1589
197 4 6.4 19.2 0 -13.3049
198 3 8 20.8 1.6 -11.2993
199 1 9.6 19.2 0 -11.7521
200 4 11.2 20.8 1.6 -13.1308
201 4 12.8 19.2 0 -13.1884
202 3 14.4 20.8 1.6 -11.1044
203 4 16 19.2 0 -13.1938
204 2 17.6 20.8 1.6 -9.76642
205 4 19.2 19.2 0 -13.155
206 4 20.8 20.8 1.6 -13.1806
207 4 22.4 19.2 0 -13.1396
208 4 24 20.8 1.6 -13.0992
209 1 25.6 19.2 0 -11.6107
210 2 27.2 20.8 1.6 -9.67439
211 1 28.8 19.2 0 -11.6256
212 4 30.4 20.8 1.6 -13.241
213 4 32 19.2 0 -13.214
214 3 33.6 20.8 1.6 -11.1828
215 4 35.2 19.2 0 -13.2726
216 3 36.8 20.8 1.6 -11.2574
217 4 38.4 19.2 0 -13.2227
218 4 40 20.8 1.6 -13.1225
219 4 41.6 19.2 0 -13.1869
220 3 43.2 20.8 1.6 -11.1505
221 4 44.8 19.2 0 -13.3207
222 3 46.4 20.8 1.6 -11.3019
223 4 48 19.2 0 -13.3054
224 3 49.6 20.8 1.6 -11.1581
225 1 0 22.4 0 -11.7482
226 3 1.6 24 1.6 -11.159
227 1 3.2 22.4 0 -11.691
228 4 4.8 24 1.6 -13.0802
229 4 6.4 22.4 0 -13.1958
230 3 8 24 1.6 -11.1463
231 4 9.6 22.4 0 -13.2159
232 4 11.2 24 1.6 -13.2406
233 1 12.8 22.4 0 -11.6882
234 2 14.4 24 1.6 -9.67403
235 1 16 22.4 0 -11.6272
236 4 17.6 24 1.6 -13.1636
237 4 19.2 22.4 0 -13.1754
238 4 20.8 24 1.6 -13.1951
239 4 22.4 22.4 0 -13.1357
240 4 24 24 1.6 -13.1868
241 4 25.6 22.4 0 -13.2227
242 3 27.2 24 1.6 -11.1704
243 4 28.8 22.4 0 -13.266
244 3 30.4 24 1.6 -11.2284
245 4 32 22.4 0 -13.2763
246 3 33.6 24 1.6 -11.2595
247 4 35.2 22.4 0 -13.379
248 4 36.8 24 1.6 -13.1953
249 4 38.4 22.4 0 -13.2683
250 3 40 24 1.6 -10.9429
251 1 41.6 22.4 0 -11.7414
252 3 43.2 24 1.6 -11.201
253 1 44.8 22.4 0 -11.7911
254 3 46.4 24 1.6 -11.1908
255 1 48 22.4 0 -11.7065
256 4 49.6 24 1.6 -13.114
257 4 0 25.6 0 -13.1352
259 1 3.2 25.6 0 -11.6394
261 4 6.4 25.6 0 -13.1674
263 1 9.6 25.6 0 -11.8021
265 4 12.8 25.6 0 -13.2365
267 4 16 25.6 0 -13.1085
269 4 19.2 25.6 0 -13.1332
271 3 22.4 25.6 0 -11.135
273 2 25.6 25.6 0 -9.76437
275 4 28.8 25.6 0 -13.2697
277 4 32 25.6 0 -13.2225
279 4 35.2 25.6 0 -13.2906
281 1 38.4 25.6 0 -11.7406
283 1 41.6 25.6 0 -11.7342
285 1 44.8 25.6 0 -11.708
287 1 48 25.6 0 -11.5863
258 2 1.6 27.2 1.6 -9.70685
289 4 0 28.8 0 -13.1982
260 4 4.8 27.2 1.6 -13.1165
291 1 3.2 28.8 0 -11.687
262 2 8 27.2 1.6 -9.79026
293 4 6.4 28.8 0 -13.322
264 3 11.2 27.2 1.6 -11.2506
295 4 9.6 28.8 0 -13.2909
266 4 14.4 27.2 1.6 -13.2615
297 4 12.8 28.8 0 -13.2973
268 4 17.6 27.2 1.6 -13.1815
299 3 16 28.8 0 -11.0884
270 4 20.8 27.2 1.6 -13.1258
301 3 19.2 28.8 0 -11.263
272 4 24 27.2 1.6 -13.1438
303 3 22.4 28.8 0 -11.1963
305 4 25.6 28.8 0 -13.1719
274 4 27.2 27.2 1.6 -13.1783
307 4 28.8 28.8 0 -13.11
276 2 30.4 27.2 1.6 -9.73056
309 4 32 28.8 0 -13.2421
278 3 33.6 27.2 1.6 -11.2995
311 4 35.2 28.8 0 -13.3311
280 3 36.8 27.2 1.6 -11.1864
313 1 38.4 28.8 0 -11.7506
282 4 40 27.2 1.6 -13.0642
315 1 41.6 28.8 0 -11.7801
284 3 43.2 27.2 1.6 -11.1273
317 1 44.8 28.8 0 -11.8113
286 2 46.4 27.2 1.6 -9.69699
319 4 48 28.8 0 -13.2814
288 4 49.6 27.2 1.6 -13.0789
290 3 1.6 30.4 1.6 -11.2605
321 4 0 32 0 -13.2727
292 3 4.8 30.4 1.6 -11.2528
323 4 3.2 32 0 -13.2654
294 4 8 30.4 1.6 -13.1193
325 4 6.4 32 0 -13.176
296 2 11.2 30.4 1.6 -9.76357
327 1 9.6 32 0 -11.64
298 4 14.4 30.4 1.6 -13.0713
329 4 12.8 32 0 -13.1693
300 4 17.6 30.4 1.6 -13.2342
331 1 16 32 0 -11.6013
302 1 20.8 30.4 1.6 -11.7298
333 3 19.2 32 0 -11.1463
304 1 24 30.4 1.6 -11.6395
335 3 22.4 32 0 -11.234
337 3 25.6 32 0 -11.1701
306 4 27.2 30.4 1.6 -13.1237
339 4 28.8 32 0 -13.2433
308 4 30.4 30.4 1.6 -13.1935
341 1 32 32 0 -11.5969
310 3 33.6 30.4 1.6 -11.1836
343 4 35.2 32 0 -13.2604
312 3 36.8 30.4 1.6 -11.2324
345 1 38.4 32 0 -11.7974
314 3 40 30.4 1.6 -11.2045
347 1 41.6 32 0 -11.7979
316 3 43.2 30.4 1.6 -11.1624
349 4 44.8 32 0 -13.2425
318 3 46.4 30.4 1.6 -11.2302
351 4 48 32 0 -13.2505
320 2 49.6 30.4 1.6 -9.81636
322 3 1.6 33.6 1.6 -11.1143
353 1 0 35.2 0 -11.7064
324 4 4.8 33.6 1.6 -13.2045
355 1 3.2 35.2 0 -11.7265
326 4 8 33.6 1.6 -12.9972
357 4 6.4 35.2 0 -13.2515
328 4 11.2 33.6 1.6 -13.1265
359 4 9.6 35.2 0 -13.2462
330 2 14.4 33.6 1.6 -9.63367
361 4 12.8 35.2 0 -13.3498
332 4 17.6 33.6 1.6 -13.0785
363 1 16 35.2 0 -11.6412
334 4 20.8 33.6 1.6 -13.1494
365 1 19.2 35.2 0 -11.5549
336 4 24 33.6 1.6 -13.1932
367 4 22.4 35.2 0 -13.2028
369 4 25.6 35.2 0 -13.2446
338 4 27.2 33.6 1.6 -13.194
371 1 28.8 35.2 0 -11.5912
340 4 30.4 33.6 1.6 -12.9233
373 1 32 35.2 0 -11.5732
342 2 33.6 33.6 1.6 -9.71701
375 4 35.2 35.2 0 -13.2107
344 3 36.8 33.6 1.6 -11.2268
377 1 38.4 35.2 0 -11.7727
346 3 40 33.6 1.6 -11.1194
379 1 41.6 35.2 0 -11.7875
348 4 43.2 33.6 1.6 -13.0681
381 1 44.8 35.2 0 -11.7029
350 4 46.4 33.6 1.6 -13.0711
383 1 48 35.2 0 -11.6931
352 2 49.6 33.6 1.6 -9.66518
354 3 1.6 36.8 1.6 -11.1276
385 1 0 38.4 0 -11.7845
356 3 4.8 36.8 1.6 -11.2634
387 1 3.2 38.4 0 -11.8258
358 3 8 36.8 1.6 -11.2442
389 4 6.4 38.4 0 -13.3168
360 4 11.2 36.8 1.6 -13.3105
391 4 9.6 38.4 0 -13.2481
362 3 14.4 36.8 1.6 -11.2603
393 2 12.8 38.4 0 -9.76019
364 3 17.6 36.8 1.6 -11.032
395 4 16 38.4 0 -13.2847
366 4 20.8 36.8 1.6 -12.991
397 1 19.2 38.4 0 -11.651
368 2 24 36.8 1.6 -9.82125
399 1 22.4 38.4 0 -11.7233
401 4 25.6 38.4 0 -13.2706
370 2 27.2 36.8 1.6 -9.63917
403 4 28.8 38.4 0 -13.167
372 2 30.4 36.8 1.6 -9.59576
405 4 32 38.4 0 -13.2315
374 4 33.6 36.8 1.6 -13.0447
407 4 35.2 38.4 0 -13.2088
376 4 36.8 36.8 1.6 -13.0903
409 4 38.4 38.4 0 -13.2294
378 2 40 36.8 1.6 -9.76212
411 4 41.6 38.4 0 -13.3013
380 3 43.2 36.8 1.6 -11.1566
413 1 44.8 38.4 0 -11.798
382 3 46.4 36.8 1.6 -11.1646
415 1 48 38.4 0 -11.8123
384 3 49.6 36.8 1.6 -11.2419
386 3 1.6 40 1.6 -11.0815
417 1 0 41.6 0 -11.6954
388 3 4.8 40 1.6 -11.2389
419 1 3.2 41.6 0 -11.6979
390 4 8 40 1.6 -13.1615
421 1 6.4 41.6 0 -11.6459
392 4 11.2 40 1.6 -13.011
423 4 9.6 41.6 0 -12.9952
394 4 14.4 40 1.6 -13.2129
425 4 12.8 41.6 0 -13.1905
396 3 17.6 40 1.6 -11.1555
427 4 16 41.6 0 -13.2845
398 2 20.8 40 1.6 -9.72215
429 1 19.2 41.6 0 -11.7166
400 3 24 40 1.6 -11.1757
431 4 22.4 41.6 0 -13.2702
433 4 25.6 41.6 0 -13.2237
402 4 27.2 40 1.6 -13.1637
435 4 28.8 41.6 0 -13.1401
404 4 30.4 40 1.6 -13.1443
437 4 32 41.6 0 -13.1905
406 4 33.6 40 1.6 -13.1835
439 4 35.2 41.6 0 -13.1481
408 4 36.8 40 1.6 -13.1444
441 3 38.4 41.6 0 -11.1559
410 4 40 40 1.6 -13.1773
443 2 41.6 41.6 0 -9.81009
412 2 43.2 40 1.6 -9.7924
445 1 44.8 41.6 0 -11.7912
414 3 46.4 40 1.6 -11.164
447 1 48 41.6 0 -11.7841
416 3 49.6 40 1.6 -11.1654
418 4 1.6 43.2 1.6 -13.0667
449 4 0 44.8 0 -13.238
420 3 4.8 43.2 1.6 -11.0789
451 1 3.2 44.8 0 -11.6979
422 2 8 43.2 1.6 -9.66375
453 4 6.4 44.8 0 -13.1639
424 4 11.2 43.2 1.6 -13.0779
455 1 9.6 44.8 0 -11.6288
426 3 14.4 43.2 1.6 -11.155
457 4 12.8 44.8 0 -13.1818
428 3 17.6 43.2 1.6 -11.1965
459 1 16 44.8 0 -11.7669
430 2 20.8 43.2 1.6 -9.73414
461 1 19.2 44.8 0 -11.7397
432 4 24 43.2 1.6 -13.2391
463 4 22.4 44.8 0 -13.3043
465 4 25.6 44.8 0 -13.295
434 4 27.2 43.2 1.6 -13.1387
467 3 28.8 44.8 0 -11.1681
436 4 30.4 43.2 1.6 -13.2641
469 2 32 44.8 0 -9.66248
438 4 33.6 43.2 1.6 -13.1173
471 4 35.2 44.8 0 -13.0418
440 4 36.8 43.2 1.6 -13.2066
473 4 38.4 44.8 0 -13.169
442 4 40 43.2 1.6 -13.2975
475 4 41.6 44.8 0 -13.2657
444 3 43.2 43.2 1.6 -11.2174
477 1 44.8 44.8 0 -11.8101
446 3 46.4 43.2 1.6 -11.2713
479 1 48 44.8 0 -11.8281
448 2 49.6 43.2 1.6 -9.71442
450 3 1.6 46.4 1.6 -11.2623
481 1 0 48 0 -11.8833
452 4 4.8 46.4 1.6 -13.2488
483 4 3.2 48 0 -13.306
454 3 8 46.4 1.6 -10.9794
485 1 6.4 48 0 -11.6974
456 2 11.2 46.4 1.6 -9.62464
487 4 9.6 48 0 -13.2397
458 4 14.4 46.4 1.6 -13.0592
489 1 12.8 48 0 -11.6943
460 3 17.6 46.4 1.6 -11.1215
491 1 16 48 0 -11.7013
462 4 20.8 46.4 1.6 -13.1626
493 4 19.2 48 0 -13.26
464 3 24 46.4 1.6 -11.2226
495 1 22.4 48 0 -11.7713
497 4 25.6 48 0 -13.2216
466 4 27.2 46.4 1.6 -13.2201
499 4 28.8 48 0 -13.2018
468 4 30.4 46.4 1.6 -13.2258
501 3 32 48 0 -11.1118
470 1 33.6 46.4 1.6 -11.6681
503 3 35.2 48 0 -11.1937
472 4 36.8 46.4 1.6 -13.2082
505 4 38.4 48 0 -13.1189
474 4 40 46.4 1.6 -13.2236
507 4 41.6 48 0 -13.3008
476 3 43.2 46.4 1.6 -11.2648
509 1 44.8 48 0 -11.8554
478 3 46.4 46.4 1.6 -11.2764
511 1 48 48 0 -11.8556
480 3 49.6 46.4 1.6 -11.2366
482 3 1.6 49.6 1.6 -11.1892
484 2 4.8 49.6 1.6 -9.76017
486 4 8 49.6 1.6 -13.3105
488 3 11.2 49.6 1.6 -11.1863
490 2 14.4 49.6 1.6 -9.65397
492 3 17.6 49.6 1.6 -11.1192
494 3 20.8 49.6 1.6 -11.1982
496 3 24 49.6 1.6 -11.2277
498 4 27.2 49.6 1.6 -13.0951
500 4 30.4 49.6 1.6 -13.2374
502 1 33.6 49.6 1.6 -11.7726
504 4 36.8 49.6 1.6 -13.3064
506 3 40 49.6 1.6 -11.1822
508 3 43.2 49.6 1.6 -11.3395
510 3 46.4 49.6 1.6 -11.277
512 3 49.6 49.6 1.6 -11.2364
513 1 0 0 3.2 -11.6608
514 2 1.6 1.6 4.8 -9.66026
515 4 3.2 0 3.2 -13.2126
516 3 4.8 1.6 4.8 -11.1942
517 4 6.4 0 3.2 -13.3125
518 4 8 1.6 4.8 -13.2407
519 4 9.6 0 3.2 -13.3002
520 4 11.2 1.6 4.8 -13.0347
521 4 12.8 0 3.2 -13.1856
522 2 14.4 1.6 4.8 -9.72005
523 1 16 0 3.2 -11.7303
524 3 17.6 1.6 4.8 -11.1629
525 1 19.2 0 3.2 -11.793
526 3 20.8 1.6 4.8 -11.1997
527 4 22.4 0 3.2 -13.3054
528 4 24 1.6 4.8 -13.1652
529 4 25.6 0 3.2 -13.1408
530 4 27.2 1.6 4.8 -13.1759
531 4 28.8 0 3.2 -13.2425
532 4 30.4 1.6 4.8 -13.3179
533 3 32 0 3.2 -11.2117
534 4 33.6 1.6 4.8 -13.2624
535 3 35.2 0 3.2 -11.2603
536 4 36.8 1.6 4.8 -13.0536
537 4 38.4 0 3.2 -13.2024
538 2 40 1.6 4.8 -9.75664
539 4 41.6 0 3.2 -13.3521
540 3 43.2 1.6 4.8 -11.1974
541 1 44.8 0 3.2 -11.7933
542 4 46.4 1.6 4.8 -13.0967
543 1 48 0 3.2 -11.7371
544 3 49.6 1.6 4.8 -11.0393
545 1 0 3.2 3.2 -11.7469
546 3 1.6 4.8 4.8 -11.2065
547 1 3.2 3.2 3.2 -11.7093
548 3 4.8 4.8 4.8 -11.1199
549 1 6.4 3.2 3.2 -11.6775
550 2 8 4.8 4.8 -9.64235
551 4 9.6 3.2 3.2 -13.1383
552 2 11.2 4.8 4.8 -9.69311
553 1 12.8 3.2 3.2 -11.6857
554 3 14.4 4.8 4.8 -11.2021
555 4 16 3.2 3.2 -13.2788
556 3 17.6 4.8 4.8 -11.2715
557 1 19.2 3.2 3.2 -11.7901
558 2 20.8 4.8 4.8 -9.76104
559 4 22.4 3.2 3.2 -13.2788
560 3 24 4.8 4.8 -11.1941
561 4 25.6 3.2 3.2 -13.2471
562 3 27.2 4.8 4.8 -11.2256
563 4 28.8 3.2 3.2 -13.3061
564 2 30.4 4.8 4.8 -9.78596
565 4 32 3.2 3.2 -13.284
566 2 33.6 4.8 4.8 -9.66807
567 4 35.2 3.2 3.2 -13.1332
568 4 36.8 4.8 4.8 -12.9828
569 1 38.4 3.2 3.2 -11.6768
570 3 40 4.8 4.8 -11.1163
571 4 41.6 3.2 3.2 -13.3328
572 3 43.2 4.8 4.8 -11.1212
573 1 44.8 3.2 3.2 -11.7345
574 3 46.4 4.8 4.8 -11.1662
575 1 48 3.2 3.2 -11.7803
576 3 49.6 4.8 4.8 -11.2051
577 1 0 6.4 3.2 -11.7986
578 3 1.6 8 4.8 -11.1545
579 1 3.2 6.4 3.2 -11.7396
580 4 4.8 8 4.8 -13.2449
581 4 6.4 6.4 3.2 -13.2088
582 4 8 8 4.8 -13.154
583 4 9.6 6.4 3.2 -13.2357
584 3 11.2 8 4.8 -11.2
585 1 12.8 6.4 3.2 -11.7089
586 3 14.4 8 4.8 -11.1241
587 1 16 6.4 3.2 -11.7302
588 2 17.6 8 4.8 -9.68967
589 4 19.2 6.4 3.2 -13.2376
590 2 20.8 8 4.8 -9.70221
591 1 22.4 6.4 3.2 -11.6853
592 4 24 8 4.8 -13.0432
593 4 25.6 6.4 3.2 -13.2765
594 4 27.2 8 4.8 -13.1634
595 4 28.8 6.4 3.2 -13.3287
596 3 30.4 8 4.8 -11.116
597 4 32 6.4 3.2 -13.2795
598 2 33.6 8 4.8 -9.78542
599 1 35.2 6.4 3.2 -11.6503
600 2 36.8 8 4.8 -9.55189
601 1 38.4 6.4 3.2 -11.6103
602 4 40 8 4.8 -13.066
603 1 41.6 6.4 3.2 -11.691
604 2 43.2 8 4.8 -9.75743
605 1 44.8 6.4 3.2 -11.7196
606 3 46.4 8 4.8 -11.1167
607 1 48 6.4 3.2 -11.7464
608 3 49.6 8 4.8 -11.1228
609 4 0 9.6 3.2 -13.2871
610 3 1.6 11.2 4.8 -11.2231
611 4 3.2 9.6 3.2 -13.2408
612 3 4.8 11.2 4.8 -11.2563
613 4 6.4 9.6 3.2 -13.2448
614 3 8 11.2 4.8 -11.1901
615 4 9.6 9.6 3.2 -13.3068
616 3 11.2 11.2 4.8 -11.2387
617 1 12.8 9.6 3.2 -11.7026
618 3 14.4 11.2 4.8 -11.1247
619 1 16 9.6 3.2 -11.6111
620 4 17.6 11.2 4.8 -13.1189
621 4 19.2 9.6 3.2 -13.1919
622 4 20.8 11.2 4.8 -13.1964
623 4 22.4 9.6 3.2 -13.1953
624 3 24 11.2 4.8 -11.224
625 4 25.6 9.6 3.2 -13.2364
626 2 27.2 11.2 4.8 -9.75656
627 1 28.8 9.6 3.2 -11.7103
628 3 30.4 11.2 4.8 -11.1593
629 4 32 9.6 3.2 -13.2851
630 2 33.6 11.2 4.8 -9.70262
631 4 35.2 9.6 3.2 -13.1989
632 3 36.8 11.2 4.8 -11.2617
633 1 38.4 9.6 3.2 -11.6135
634 3 40 11.2 4.8 -11.1971
635 1 41.6 9.6 3.2 -11.6964
636 3 43.2 11.2 4.8 -11.1836
637 4 44.8 9.6 3.2 -13.1969
638 4 46.4 11.2 4.8 -13.1448
639 1 48 9.6 3.2 -11.6668
640 4 49.6 11.2 4.8 -13.1091
641 4 0 12.8 3.2 -13.2836
642 3 1.6 14.4 4.8 -11.2754
643 1 3.2 12.8 3.2 -11.7464
644 3 4.8 14.4 4.8 -11.1941
645 4 6.4 12.8 3.2 -13.2002
646 4 8 14.4 4.8 -13.2007
647 4 9.6 12.8 3.2 -13.2741
648 3 11.2 14.4 4.8 -11.1935
649 1 12.8 12.8 3.2 -11.7555
650 3 14.4 14.4 4.8 -11.1656
651 1 16 12.8 3.2 -11.705
652 3 17.6 14.4 4.8 -11.1563
653 4 19.2 12.8 3.2 -13.3217
654 3 20.8 14.4 4.8 -11.2273
655 4 22.4 12.8 3.2 -13.3293
656 3 24 14.4 4.8 -11.2351
657 4 25.6 12.8 3.2 -13.2925
658 3 27.2 14.4 4.8 -11.1528
659 4 28.8 12.8 3.2 -13.2458
660 2 30.4 14.4 4.8 -9.75296
661 1 32 12.8 3.2 -11.6261
662 4 33.6 14.4 4.8 -13.0721
663 4 35.2 12.8 3.2 -13.1143
664 3 36.8 14.4 4.8 -11.2322
665 1 38.4 12.8 3.2 -11.7503
666 3 40 14.4 4.8 -11.1188
667 4 41.6 12.8 3.2 -13.2421
668 3 43.2 14.4 4.8 -11.3052
669 4 44.8 12.8 3.2 -13.1905
670 3 46.4 14.4 4.8 -11.152
671 1 48 12.8 3.2 -11.6454
672 2 49.6 14.4 4.8 -9.71442
673 1 0 16 3.2 -11.8281
674 3 1.6 17.6 4.8 -11.1645
675 1 3.2 16 3.2 -11.812
676 3 4.8 17.6 4.8 -11.2039
677 1 6.4 16 3.2 -11.7133
678 4 8 17.6 4.8 -13.1291
679 4 9.6 16 3.2 -13.229
680 4 11.2 17.6 4.8 -13.0712
681 1 12.8 16 3.2 -11.7533
682 3 14.4 17.6 4.8 -11.1941
683 1 16 16 3.2 -11.716
684 3 17.6 17.6 4.8 -11.2326
685 4 19.2 16 3.2 -13.3241
686 3 20.8 17.6 4.8 -11.1538
687 1 22.4 16 3.2 -11.8025
688 2 24 17.6 4.8 -9.72167
689 4 25.6 16 3.2 -13.2228
690 4 27.2 17.6 4.8 -13.1592
691 4 28.8 16 3.2 -13.2845
692 3 30.4 17.6 4.8 -11.1966
693 1 32 16 3.2 -11.654
694 3 33.6 17.6 4.8 -11.1622
695 4 35.2 16 3.2 -13.2222
696 3 36.8 17.6 4.8 -11.1948
697 1 38.4 16 3.2 -11.683
698 4 40 17.6 4.8 -13.0681
699 1 41.6 16 3.2 -11.6168
700 3 43.2 17.6 4.8 -11.0745
701 4 44.8 16 3.2 -13.2076
702 3 46.4 17.6 4.8 -11.2021
703 1 48 16 3.2 -11.7579
704 3 49.6 17.6 4.8 -11.1261
705 1 0 19.2 3.2 -11.7802
706 3 1.6 20.8 4.8 -11.1648
707 1 3.2 19.2 3.2 -11.8416
708 3 4.8 20.8 4.8 -11.1651
709 1 6.4 19.2 3.2 -11.8105
710 3 8 20.8 4.8 -11.1161
711 4 9.6 19.2 3.2 -13.1323
712 4 11.2 20.8 4.8 -12.9316
713 1 12.8 19.2 3.2 -11.631
714 4 14.4 20.8 4.8 -13.0317
715 4 16 19.2 3.2 -13.2736
716 4 17.6 20.8 4.8 -13.2038
717 4 19.2 19.2 3.2 -13.2765
718 4 20.8 20.8 4.8 -13.1918
719 1 22.4 19.2 3.2 -11.672
720 2 24 20.8 4.8 -9.63543
721 1 25.6 19.2 3.2 -11.6381
722 4 27.2 20.8 4.8 -13.1233
723 4 28.8 19.2 3.2 -13.1807
724 3 30.4 20.8 4.8 -11.2297
725 1 32 19.2 3.2 -11.7269
726 3 33.6 20.8 4.8 -11.2397
727 1 35.2 19.2 3.2 -11.812
728 3 36.8 20.8 4.8 -11.1914
729 4 38.4 19.2 3.2 -13.1617
730 2 40 20.8 4.8 -9.62448
731 1 41.6 19.2 3.2 -11.5745
732 4 43.2 20.8 4.8 -13.1118
733 1 44.8 19.2 3.2 -11.741
734 2 46.4 20.8 4.8 -9.69388
735 1 48 19.2 3.2 -11.7516
736 4 49.6 20.8 4.8 -13.1041
737 1 0 22.4 3.2 -11.7621
738 3 1.6 24 4.8 -11.2747
739 1 3.2 22.4 3.2 -11.7978
740 3 4.8 24 4.8 -11.164
741 1 6.4 22.4 3.2 -11.8102
742 3 8 24 4.8 -11.2732
743 4 9.6 22.4 3.2 -13.3006
744 3 11.2 24 4.8 -11.1516
745 4 12.8 22.4 3.2 -13.1004
746 4 14.4 24 4.8 -13.1592
747 4 16 22.4 3.2 -13.232
748 3 17.6 24 4.8 -11.1727
749 3 19.2 22.4 3.2 -11.191
750 4 20.8 24 4.8 -13.2637
751 2 22.4 22.4 3.2 -9.73865
752 1 24 24 4.8 -11.6231
753 4 25.6 22.4 3.2 -13.1187
754 4 27.2 24 4.8 -13.1385
755 4 28.8 22.4 3.2 -13.2736
756 3 30.4 24 4.8 -11.1947
757 1 32 22.4 3.2 -11.8139
758 2 33.6 24 4.8 -9.75844
759 4 35.2 22.4 3.2 -13.2692
760 4 36.8 24 4.8 -13.0748
761 1 38.4 22.4 3.2 -11.6346
762 4 40 24 4.8 -13.0694
763 1 41.6 22.4 3.2 -11.6691
764 3 43.2 24 4.8 -11.1154
765 4 44.8 22.4 3.2 -13.3013
766 3 46.4 24 4.8 -11.233
767 4 48 22.4 3.2 -13.2743
768 3 49.6 24 4.8 -11.1574
769 4 0 25.6 3.2 -13.235
771 4 3.2 25.6 3.2 -13.2034
773 1 6.4 25.6 3.2 -11.7004
775 4 9.6 25.6 3.2 -13.3275
777 4 12.8 25.6 3.2 -13.3051
779 4 16 25.6 3.2 -13.2048
781 4 19.2 25.6 3.2 -13.1287
783 4 22.4 25.6 3.2 -13.0855
785 4 25.6 25.6 3.2 -13.1207
787 1 28.8 25.6 3.2 -11.7783
789 1 32 25.6 3.2 -11.8124
791 4 35.2 25.6 3.2 -13.2658
793 1 38.4 25.6 3.2 -11.5543
795 1 41.6 25.6 3.2 -11.6664
797 1 44.8 25.6 3.2 -11.7786
799 4 48 25.6 3.2 -13.2047
770 2 1.6 27.2 4.8 -9.75293
801 1 0 28.8 3.2 -11.7309
772 2 4.8 27.2 4.8 -9.72539
803 4 3.2 28.8 3.2 -13.2906
774 2 8 27.2 4.8 -9.7219
805 4 6.4 28.8 3.2 -13.1982
776 3 11.2 27.2 4.8 -11.2582
807 4 9.6 28.8 3.2 -13.2818
778 3 14.4 27.2 4.8 -11.1501
809 4 12.8 28.8 3.2 -13.2535
780 2 17.6 27.2 4.8 -9.70538
811 4 16 28.8 3.2 -13.1852
782 1 20.8 27.2 4.8 -11.5595
813 4 19.2 28.8 3.2 -13.0471
784 4 24 27.2 4.8 -13.1939
815 4 22.4 28.8 3.2 -12.9925
817 4 25.6 28.8 3.2 -13.0501
786 3 27.2 27.2 4.8 -11.1315
819 4 28.8 28.8 3.2 -13.2062
788 3 30.4 27.2 4.8 -11.1966
821 1 32 28.8 3.2 -11.6772
790 3 33.6 27.2 4.8 -11.1972
823 1 35.2 28.8 3.2 -11.7666
792 2 36.8 27.2 4.8 -9.70466
825 4 38.4 28.8 3.2 -13.1896
794 4 40 27.2 4.8 -12.9902
827 1 41.6 28.8 3.2 -11.7047
796 3 43.2 27.2 4.8 -11.0819
829 1 44.8 28.8 3.2 -11.7392
798 4 46.4 27.2 4.8 -13.1116
831 4 48 28.8 3.2 -13.2141
800 2 49.6 27.2 4.8 -9.69686
802 3 1.6 30.4 4.8 -11.2348
833 1 0 32 3.2 -11.7382
804 3 4.8 30.4 4.8 -11.2271
835 4 3.2 32 3.2 -13.2874
806 4 8 30.4 4.8 -13.0816
837 4 6.4 32 3.2 -13.149
808 3 11.2 30.4 4.8 -11.2278
839 4 9.6 32 3.2 -13.1182
810 4 14.4 30.4 4.8 -13.1306
841 1 12.8 32 3.2 -11.6441
812 4 17.6 30.4 4.8 -13.1559
843 4 16 32 3.2 -12.9913
814 1 20.8 30.4 4.8 -11.6787
845 3 19.2 32 3.2 -11.1471
816 4 24 30.4 4.8 -13.1926
847 2 22.4 32 3.2 -9.73384
849 4 25.6 32 3.2 -13.2023
818 4 27.2 30.4 4.8 -13.323
851 3 28.8 32 3.2 -11.0884
820 4 30.4 30.4 4.8 -13.1805
853 4 32 32 3.2 -13.2097
822 4 33.6 30.4 4.8 -13.1288
855 4 35.2 32 3.2 -13.2579
824 4 36.8 30.4 4.8 -13.1629
857 1 38.4 32 3.2 -11.7267
826 3 40 30.4 4.8 -11.1123
859 1 41.6 32 3.2 -11.7034
828 2 43.2 30.4 4.8 -9.71462
861 1 44.8 32 3.2 -11.6705
830 3 46.4 30.4 4.8 -11.1629
863 1 48 32 3.2 -11.7463
832 3 49.6 30.4 4.8 -11.1996
834 4 1.6 33.6 4.8 -13.0712
865 1 0 35.2 3.2 -11.6659
836 2 4.8 33.6 4.8 -9.6714
867 1 3.2 35.2 3.2 -11.6531
838 4 8 33.6 4.8 -13.0321
869 4 6.4 35.2 3.2 -13.1898
840 3 11.2 33.6 4.8 -11.1775
871 4 9.6 35.2 3.2 -13.2569
842 4 14.4 33.6 4.8 -13.1188
873 4 12.8 35.2 3.2 -13.2589
844 4 17.6 33.6 4.8 -13.1078
875 1 16 35.2 3.2 -11.6536
846 4 20.8 33.6 4.8 -13.1868
877 1 19.2 35.2 3.2 -11.5648
848 4 24 33.6 4.8 -13.2339
879 4 22.4 35.2 3.2 -13.1036
881 4 25.6 35.2 3.2 -13.1047
850 4 27.2 33.6 4.8 -13.1937
883 1 28.8 35.2 3.2 -11.5425
852 4 30.4 33.6 4.8 -13.1885
885 1 32 35.2 3.2 -11.5307
854 3 33.6 33.6 4.8 -11.1948
887 4 35.2 35.2 3.2 -13.2248
856 4 36.8 33.6 4.8 -13.1679
889 4 38.4 35.2 3.2 -13.1274
858 4 40 33.6 4.8 -13.1675
891 4 41.6 35.2 3.2 -13.1797
860 2 43.2 33.6 4.8 -9.65923
893 1 44.8 35.2 3.2 -11.6612
862 3 46.4 33.6 4.8 -11.0808
895 4 48 35.2 3.2 -13.2289
864 2 49.6 33.6 4.8 -9.69154
866 4 1.6 36.8 4.8 -12.8324
897 1 0 38.4 3.2 -11.7106
868 2 4.8 36.8 4.8 -9.72781
899 1 3.2 38.4 3.2 -11.6935
870 2 8 36.8 4.8 -9.83982
901 4 6.4 38.4 3.2 -13.3321
872 3 11.2 36.8 4.8 -11.2121
903 4 9.6 38.4 3.2 -13.2649
874 3 14.4 36.8 4.8 -11.2693
905 4 12.8 38.4 3.2 -13.2351
876 3 17.6 36.8 4.8 -11.1168
907 1 16 38.4 3.2 -11.7391
878 4 20.8 36.8 4.8 -13.1577
909 1 19.2 38.4 3.2 -11.6844
880 3 24 36.8 4.8 -11.0865
911 4 22.4 38.4 3.2 -13.2382
913 4 25.6 38.4 3.2 -13.2663
882 4 27.2 36.8 4.8 -13.1904
915 4 28.8 38.4 3.2 -13.1467
884 4 30.4 36.8 4.8 -13.1367
917 4 32 38.4 3.2 -13.1425
886 4 33.6 36.8 4.8 -13.1874
919 4 35.2 38.4 3.2 -13.0054
888 4 36.8 36.8 4.8 -13.1571
921 4 38.4 38.4 3.2 -13.0968
890 4 40 36.8 4.8 -13.1118
923 4 41.6 38.4 3.2 -13.1494
892 2 43.2 36.8 4.8 -9.69977
925 1 44.8 38.4 3.2 -11.6583
894 2 46.4 36.8 4.8 -9.64772
927 1 48 38.4 3.2 -11.762
896 3 49.6 36.8 4.8 -11.1237
898 4 1.6 40 4.8 -13.0567
929 1 0 41.6 3.2 -11.7068
900 3 4.8 40 4.8 -11.1949
931 1 3.2 41.6 3.2 -11.7413
902 3 8 40 4.8 -11.2271
933 1 6.4 41.6 3.2 -11.7951
904 4 11.2 40 4.8 -13.2101
935 4 9.6 41.6 3.2 -13.1396
906 2 14.4 40 4.8 -9.6774
937 4 12.8 41.6 3.2 -13.1668
908 4 17.6 40 4.8 -13.1276
939 1 16 41.6 3.2 -11.7258
910 3 20.8 40 4.8 -11.0125
941 4 19.2 41.6 3.2 -13.2173
912 4 24 40 4.8 -13.3327
943 4 22.4 41.6 3.2 -13.2253
945 4 25.6 41.6 3.2 -13.1843
914 2 27.2 40 4.8 -9.77272
947 4 28.8 41.6 3.2 -13.2098
916 4 30.4 40 4.8 -13.2714
949 3 32 41.6 3.2 -11.0862
918 4 33.6 40 4.8 -13.1622
951 2 35.2 41.6 3.2 -9.70391
920 4 36.8 40 4.8 -13.1562
953 4 38.4 41.6 3.2 -13.2092
922 4 40 40 4.8 -13.1408
955 4 41.6 41.6 3.2 -13.1316
924 4 43.2 40 4.8 -13.0401
957 4 44.8 41.6 3.2 -13.2385
926 4 46.4 40 4.8 -13.0213
959 1 48 41.6 3.2 -11.7676
928 3 49.6 40 4.8 -11.1247
930 3 1.6 43.2 4.8 -11.152
961 1 0 44.8 3.2 -11.7827
932 3 4.8 43.2 4.8 -11.2749
963 4 3.2 44.8 3.2 -13.2563
934 3 8 43.2 4.8 -11.1559
965 1 6.4 44.8 3.2 -11.7207
936 2 11.2 43.2 4.8 -9.70656
967 1 9.6 44.8 3.2 -11.6163
938 3 14.4 43.2 4.8 -11.2991
969 1 12.8 44.8 3.2 -11.6505
940 2 17.6 43.2 4.8 -9.70063
971 1 16 44.8 3.2 -11.7544
942 4 20.8 43.2 4.8 -13.1286
973 4 19.2 44.8 3.2 -13.1691
944 4 24 43.2 4.8 -13.2056
975 4 22.4 44.8 3.2 -13.1607
977 4 25.6 44.8 3.2 -13.287
946 4 27.2 43.2 4.8 -13.2932
979 3 28.8 44.8 3.2 -11.1279
948 4 30.4 43.2 4.8 -13.2891
981 4 32 44.8 3.2 -13.2326
950 4 33.6 43.2 4.8 -13.1658
983 2 35.2 44.8 3.2 -9.70569
952 1 36.8 43.2 4.8 -11.6856
985 3 38.4 44.8 3.2 -11.1025
954 4 40 43.2 4.8 -13.2254
987 4 41.6 44.8 3.2 -13.2616
956 4 43.2 43.2 4.8 -13.2441
989 4 44.8 44.8 3.2 -13.3306
958 3 46.4 43.2 4.8 -11.1514
991 1 48 44.8 3.2 -11.7972
960 3 49.6 43.2 4.8 -11.2349
962 3 1.6 46.4 4.8 -11.1468
993 4 0 48 3.2 -13.2375
964 2 4.8 46.4 4.8 -9.69671
995 4 3.2 48 3.2 -13.2537
966 4 8 46.4 4.8 -13.2001
997 4 6.4 48 3.2 -13.1857
968 4 11.2 46.4 4.8 -13.0322
999 4 9.6 48 3.2 -13.2121
970 3 14.4 46.4 4.8 -11.0715
1001 1 12.8 48 3.2 -11.6266
972 2 17.6 46.4 4.8 -9.81352
1003 1 16 48 3.2 -11.7342
974 4 20.8 46.4 4.8 -13.1238
1005 1 19.2 48 3.2 -11.7378
976 3 24 46.4 4.8 -11.171
1007 1 22.4 48 3.2 -11.7314
1009 4 25.6 48 3.2 -13.2202
978 4 27.2 46.4 4.8 -13.3377
1011 4 28.8 48 3.2 -13.1249
980 4 30.4 46.4 4.8 -13.2489
1013 4 32 48 3.2 -13.1317
982 4 33.6 46.4 4.8 -13.2112
1015 3 35.2 48 3.2 -11.1944
984 1 36.8 46.4 4.8 -11.6959
1017 4 38.4 48 3.2 -13.1911
986 4 40 46.4 4.8 -13.1481
1019 4 41.6 48 3.2 -13.2616
988 4 43.2 46.4 4.8 -13.1832
1021 1 44.8 48 3.2 -11.8147
990 3 46.4 46.4 4.8 -11.1609
1023 1 48 48 3.2 -11.7664
992 2 49.6 46.4 4.8 -9.68768
994 4 1.6 49.6 4.8 -12.9785
996 4 4.8 49.6 4.8 -13.2338
998 3 8 49.6 4.8 -11.1271
1000 4 11.2 49.6 4.8 -13.159
1002 3 14.4 49.6 4.8 -11.1176
1004 3 17.6 49.6 4.8 -11.2742
1006 3 20.8 49.6 4.8 -11.1978
1008 2 24 49.6 4.8 -9.75949
1010 4 27.2 49.6 4.8 -13.1794
1012 4 30.4 49.6 4.8 -13.2647
1014 1 33.6 49.6 4.8 -11.7843
1016 4 36.8 49.6 4.8 -13.1935
1018 4 40 49.6 4.8 -13.2083
1020 3 43.2 49.6 4.8 -11.1568
1022 3 46.4 49.6 4.8 -11.0809
1024 4 49.6 49.6 4.8 -13.021
1025 1 0 0 6.4 -11.6078
1026 2 1.6 1.6 8 -9.74963
1027 4 3.2 0 6.4 -13.1887
1028 3 4.8 1.6 8 -11.2665
1029 4 6.4 0 6.4 -13.3627
1030 3 8 1.6 8 -11.1551
1031 4 9.6 0 6.4 -13.2604
1032 2 11.2 1.6 8 -9.74918
1033 1 12.8 0 6.4 -11.6705
1034 3 14.4 1.6 8 -11.0385
1035 1 16 0 6.4 -11.7994
1036 3 17.6 1.6 8 -11.2389
1037 1 19.2 0 6.4 -11.8694
1038 3 20.8 1.6 8 -11.2701
1039 1 22.4 0 6.4 -11.7575
1040 3 24 1.6 8 -11.2322
1041 4 25.6 0 6.4 -13.2329
1042 3 27.2 1.6 8 -11.215
1043 3 28.8 0 6.4 -11.2445
1044 4 30.4 1.6 8 -13.2208
1045 3 32 0 6.4 -11.2243
1046 4 33.6 1.6 8 -13.2366
1047 2 35.2 0 6.4 -9.79199
1048 4 36.8 1.6 8 -13.1094
1049 4 38.4 0 6.4 -13.1636
1050 3 40 1.6 8 -11.1613
1051 1 41.6 0 6.4 -11.776
1052 3 43.2 1.6 8 -11.1273
1053 1 44.8 0 6.4 -11.7504
1054 3 46.4 1.6 8 -11.1656
1055 1 48 0 6.4 -11.7251
1056 3 49.6 1.6 8 -11.1657
1057 1 0 3.2 6.4 -11.7527
1058 3 1.6 4.8 8 -11.1601
1059 1 3.2 3.2 6.4 -11.8136
1060 3 4.8 4.8 8 -11.1971
1061 1 6.4 3.2 6.4 -11.7438
1062 4 8 4.8 8 -13.1156
1063 4 9.6 3.2 6.4 -13.1522
1064 3 11.2 4.8 8 -11.1231
1065 1 12.8 3.2 6.4 -11.7044
1066 3 14.4 4.8 8 -11.2438
1067 1 16 3.2 6.4 -11.8281
1068 3 17.6 4.8 8 -11.2011
1069 1 19.2 3.2 6.4 -11.7827
1070 4 20.8 4.8 8 -13.2402
1071 1 22.4 3.2 6.4 -11.7401
1072 3 24 4.8 8 -11.0763
1073 1 25.6 3.2 6.4 -11.7679
1074 3 27.2 4.8 8 -11.2746
1075 4 28.8 3.2 6.4 -13.2721
1076 4 30.4 4.8 8 -13.2052
1077 4 32 3.2 6.4 -13.199
1078 3 33.6 4.8 8 -11.1433
1079 4 35.2 3.2 6.4 -13.118
1080 2 36.8 4.8 8 -9.67468
1081 1 38.4 3.2 6.4 -11.6461
1082 3 40 4.8 8 -11.1547
1083 1 41.6 3.2 6.4 -11.7822
1084 4 43.2 4.8 8 -13.0705
1085 1 44.8 3.2 6.4 -11.7177
1086 3 46.4 4.8 8 -11.0369
1087 1 48 3.2 6.4 -11.7507
1088 2 49.6 4.8 8 -9.74864
1089 1 0 6.4 6.4 -11.7026
1090 4 1.6 8 8 -13.1199
1091 1 3.2 6.4 6.4 -11.7618
1092 3 4.8 8 8 -11.1131
1093 4 6.4 6.4 6.4 -13.172
1094 2 8 8 8 -9.68827
1095 1 9.6 6.4 6.4 -11.6878
1096 3 11.2 8 8 -11.2054
1097 1 12.8 6.4 6.4 -11.8122
1098 3 14.4 8 8 -11.1639
1099 1 16 6.4 6.4 -11.8281
1100 3 17.6 8 8 -11.2413
1101 4 19.2 6.4 6.4 -13.2802
1102 3 20.8 8 8 -11.1192