ITEM: TIMESTEP
0
ITEM: NUMBER OF ATOMS
8192
ITEM: BOX BOUNDS pp pp pp
0.0000000000000000e+00 5.1200000000000003e+01
0.0000000000000000e+00 5.1200000000000003e+01
0.0000000000000000e+00 5.1200000000000003e+01
ITEM: ATOMS id type x y z c_eng
1 1 0 0 0 -11.6326
2 4 1.6 1.6 1.6 -13.1544
3 4 3.2 0 0 -13.2359
4 3 4.8 1.6 1.6 -11.1877
5 4 6.4 0 0 -13.2314
6 2 8 1.6 1.6 -9.7843
7 4 9.6 0 0 -13.3073
8 2 11.2 1.6 1.6 -9.7176
9 1 12.8 0 0 -11.8279
10 3 14.4 1.6 1.6 -11.1624
11 1 16 0 0 -11.7977
12 3 17.6 1.6 1.6 -11.2305
13 1 19.2 0 0 -11.8241
14 3 20.8 1.6 1.6 -11.305
15 1 22.4 0 0 -11.7791
16 3 24 1.6 1.6 -11.1934
17 1 25.6 0 0 -11.6753
18 2 27.2 1.6 1.6 -9.76708
19 2 28.8 0 0 -9.67574
20 1 30.4 1.6 1.6 -11.6534
21 4 32 0 0 -13.2774
22 4 33.6 1.6 1.6 -13.2856
23 3 35.2 0 0 -11.1966
24 3 36.8 1.6 1.6 -11.272
25 4 38.4 0 0 -13.3926
26 3 40 1.6 1.6 -11.2555
27 4 41.6 0 0 -13.2324
28 2 43.2 1.6 1.6 -9.71808
29 1 44.8 0 0 -11.5979
30 2 46.4 1.6 1.6 -9.58742
31 1 48 0 0 -11.6185
32 3 49.6 1.6 1.6 -11.081
33 1 0 3.2 0 -11.7232
34 2 1.6 4.8 1.6 -9.65833
35 4 3.2 3.2 0 -13.2131
36 4 4.8 4.8 1.6 -13.1067
37 4 6.4 3.2 0 -13.248
38 3 8 4.8 1.6 -11.0786
39 4 9.6 3.2 0 -13.2197
40 4 11.2 4.8 1.6 -13.105
41 1 12.8 3.2 0 -11.7665
42 3 14.4 4.8 1.6 -11.1255
43 1 16 3.2 0 -11.7314
44 4 17.6 4.8 1.6 -13.0777
45 4 19.2 3.2 0 -13.2691
46 3 20.8 4.8 1.6 -11.0694
47 1 22.4 3.2 0 -11.7902
48 4 24 4.8 1.6 -13.2764
49 4 25.6 3.2 0 -13.2757
50 3 27.2 4.8 1.6 -11.1009
51 4 28.8 3.2 0 -13.233
52 4 30.4 4.8 1.6 -13.2021
53 3 32 3.2 0 -11.0091
54 4 33.6 4.8 1.6 -13.2271
55 4 35.2 3.2 0 -13.249
56 4 36.8 4.8 1.6 -13.1661
57 4 38.4 3.2 0 -13.259
58 4 40 4.8 1.6 -13.159
59 1 41.6 3.2 0 -11.7268
60 2 43.2 4.8 1.6 -9.61848
61 1 44.8 3.2 0 -11.6776
62 3 46.4 4.8 1.6 -11.166
63 1 48 3.2 0 -11.7806
64 3 49.6 4.8 1.6 -11.2045
65 1 0 6.4 0 -11.7808
66 3 1.6 8 1.6 -11.083
67 1 3.2 6.4 0 -11.7396
68 3 4.8 8 1.6 -11.0865
69 1 6.4 6.4 0 -11.7732
70 3 8 8 1.6 -11.2786
71 1 9.6 6.4 0 -11.7733
72 3 11.2 8 1.6 -11.0797
73 1 12.8 6.4 0 -11.7801
74 3 14.4 8 1.6 -11.1994
75 1 16 6.4 0 -11.675
76 2 17.6 8 1.6 -9.73446
77 4 19.2 6.4 0 -13.1334
78 3 20.8 8 1.6 -11.1989
79 1 22.4 6.4 0 -11.7087
80 3 24 8 1.6 -11.2328
81 4 25.6 6.4 0 -13.3048
82 3 27.2 8 1.6 -11.2269
83 4 28.8 6.4 0 -13.2702
84 2 30.4 8 1.6 -9.76183
85 2 32 6.4 0 -9.81743
86 3 33.6 8 1.6 -11.1385
87 4 35.2 6.4 0 -13.2551
88 3 36.8 8 1.6 -11.156
89 4 38.4 6.4 0 -13.2334
90 3 40 8 1.6 -11.2012
91 4 41.6 6.4 0 -13.2681
92 3 43.2 8 1.6 -11.1634
93 1 44.8 6.4 0 -11.7301
94 3 46.4 8 1.6 -11.1653
95 1 48 6.4 0 -11.7803
96 3 49.6 8 1.6 -11.2051
97 1 0 9.6 0 -11.7396
98 2 1.6 11.2 1.6 -9.6637
99 1 3.2 9.6 0 -11.7101
100 4 4.8 11.2 1.6 -13.1578
101 1 6.4 9.6 0 -11.78
102 3 8 11.2 1.6 -11.1219
103 1 9.6 9.6 0 -11.8284
104 2 11.2 11.2 1.6 -9.69052
105 1 12.8 9.6 0 -11.7139
106 4 14.4 11.2 1.6 -13.0632
107 1 16 9.6 0 -11.616
108 4 17.6 11.2 1.6 -13.1131
109 4 19.2 9.6 0 -13.2367
110 3 20.8 11.2 1.6 -11.1449
111 1 22.4 9.6 0 -11.6973
112 2 24 11.2 1.6 -9.72379
113 4 25.6 9.6 0 -13.1864
114 4 27.2 11.2 1.6 -13.1155
115 4 28.8 9.6 0 -13.21
116 3 30.4 11.2 1.6 -11.1006
117 4 32 9.6 0 -13.3633
118 4 33.6 11.2 1.6 -13.3228
119 4 35.2 9.6 0 -13.2047
120 3 36.8 11.2 1.6 -11.1117
121 1 38.4 9.6 0 -11.7084
122 2 40 11.2 1.6 -9.71529
123 1 41.6 9.6 0 -11.7441
124 4 43.2 11.2 1.6 -13.0694
125 1 44.8 9.6 0 -11.7174
126 3 46.4 11.2 1.6 -11.0817
127 1 48 9.6 0 -11.7505
128 2 49.6 11.2 1.6 -9.74847
129 4 0 12.8 0 -13.1829
130 4 1.6 14.4 1.6 -13.0297
131 4 3.2 12.8 0 -13.1516
132 2 4.8 14.4 1.6 -9.75827
133 1 6.4 12.8 0 -11.7424
134 3 8 14.4 1.6 -11.2007
135 1 9.6 12.8 0 -11.6827
136 3 11.2 14.4 1.6 -11.12
137 1 12.8 12.8 0 -11.6468
138 3 14.4 14.4 1.6 -11.1506
139 1 16 12.8 0 -11.6425
140 3 17.6 14.4 1.6 -11.1088
141 4 19.2 12.8 0 -13.2176
142 4 20.8 14.4 1.6 -13.2771
143 1 22.4 12.8 0 -11.6218
144 2 24 14.4 1.6 -9.63835
145 1 25.6 12.8 0 -11.5375
146 2 27.2 14.4 1.6 -9.5209
147 1 28.8 12.8 0 -11.5837
148 4 30.4 14.4 1.6 -13.0933
149 2 32 12.8 0 -9.73462
150 4 33.6 14.4 1.6 -13.1841
151 4 35.2 12.8 0 -13.2675
152 2 36.8 14.4 1.6 -9.76339
153 1 38.4 12.8 0 -11.6503
154 3 40 14.4 1.6 -11.1494
155 1 41.6 12.8 0 -11.6507
156 4 43.2 14.4 1.6 -13.1622
157 1 44.8 12.8 0 -11.7315
158 3 46.4 14.4 1.6 -11.2007
159 1 48 12.8 0 -11.8116
160 2 49.6 14.4 1.6 -9.65887
161 1 0 16 0 -11.6745
162 3 1.6 17.6 1.6 -11.0366
163 1 3.2 16 0 -11.7503
164 3 4.8 17.6 1.6 -11.2413
165 4 6.4 16 0 -13.3117
166 3 8 17.6 1.6 -11.1993
167 1 9.6 16 0 -11.662
168 4 11.2 17.6 1.6 -13.1577
169 4 12.8 16 0 -13.1876
170 4 14.4 17.6 1.6 -13.1513
171 1 16 16 0 -11.6355
172 4 17.6 17.6 1.6 -13.1643
173 1 19.2 16 0 -11.7311
174 3 20.8 17.6 1.6 -11.1561
175 4 22.4 16 0 -13.1732
176 4 24 17.6 1.6 -13.1652
177 4 25.6 16 0 -13.1627
178 4 27.2 17.6 1.6 -13.1278
179 1 28.8 16 0 -11.6147
180 2 30.4 17.6 1.6 -9.72771
181 2 32 16 0 -9.7007
182 3 33.6 17.6 1.6 -11.229
183 4 35.2 16 0 -13.2658
184 3 36.8 17.6 1.6 -11.1937
185 4 38.4 16 0 -13.2775
186 3 40 17.6 1.6 -11.2694
187 4 41.6 16 0 -13.2859
188 3 43.2 17.6 1.6 -11.1612
189 1 44.8 16 0 -11.8286
190 3 46.4 17.6 1.6 -11.1595
191 1 48 16 0 -11.7464
192 4 49.6 17.6 1.6 -13.0055
193 1 0 19.2 0 -11.8066
194 3 1.6 20.8 1.6 -11.2392
195 1 3.2 19.2 0 -11.7974
196 3 4.8 20.8 1.6 -11.1569
197 1 6.4 19.2 0 -11.7532
198 2 8 20.8 1.6 -9.73473
199 4 9.6 19.2 0 -13.1814
200 4 11.2 20.8 1.6 -13.1117
201 3 12.8 19.2 0 -11.0442
202 4 14.4 20.8 1.6 -13.2528
203 4 16 19.2 0 -13.1871
204 3 17.6 20.8 1.6 -11.2692
205 4 19.2 19.2 0 -13.2748
206 3 20.8 20.8 1.6 -11.1102
207 1 22.4 19.2 0 -11.6962
208 2 24 20.8 1.6 -9.73262
209 4 25.6 19.2 0 -13.1543
210 4 27.2 20.8 1.6 -13.1755
211 4 28.8 19.2 0 -13.1643
212 3 30.4 20.8 1.6 -11.26
213 4 32 19.2 0 -13.3371
214 3 33.6 20.8 1.6 -11.196
215 4 35.2 19.2 0 -13.1953
216 3 36.8 20.8 1.6 -11.1592
217 1 38.4 19.2 0 -11.6906
218 4 40 20.8 1.6 -13.0541
219 1 41.6 19.2 0 -11.7742
220 3 43.2 20.8 1.6 -11.0399
221 1 44.8 19.2 0 -11.7463
222 2 46.4 20.8 1.6 -9.64652
223 1 48 19.2 0 -11.6871
224 3 49.6 20.8 1.6 -11.1209
225 4 0 22.4 0 -13.243
226 4 1.6 24 1.6 -13.2135
227 4 3.2 22.4 0 -13.2763
228 3 4.8 24 1.6 -11.2105
229 4 6.4 22.4 0 -13.1825
230 4 8 24 1.6 -13.2921
231 4 9.6 22.4 0 -13.1844
232 4 11.2 24 1.6 -13.2451
233 4 12.8 22.4 0 -13.1857
234 4 14.4 24 1.6 -13.1755
235 2 16 22.4 0 -9.78114
236 4 17.6 24 1.6 -13.3106
237 4 19.2 22.4 0 -13.2455
238 1 20.8 24 1.6 -11.6181
239 4 22.4 22.4 0 -13.0815
240 4 24 24 1.6 -13.2049
241 4 25.6 22.4 0 -13.3225
242 4 27.2 24 1.6 -13.3031
243 4 28.8 22.4 0 -13.227
244 3 30.4 24 1.6 -11.1829
245 4 32 22.4 0 -13.2755
246 2 33.6 24 1.6 -9.74886
247 1 35.2 22.4 0 -11.6808
248 3 36.8 24 1.6 -11.1262
249 1 38.4 22.4 0 -11.653
250 2 40 24 1.6 -9.64604
251 1 41.6 22.4 0 -11.6853
252 2 43.2 24 1.6 -9.622
253 1 44.8 22.4 0 -11.6382
254 2 46.4 24 1.6 -9.52271
255 1 48 22.4 0 -11.5997
256 2 49.6 24 1.6 -9.75999
257 4 0 25.6 0 -13.2596
259 4 3.2 25.6 0 -13.2139
261 4 6.4 25.6 0 -13.2192
263 3 9.6 25.6 0 -11.2723
265 4 12.8 25.6 0 -13.2071
267 4 16 25.6 0 -13.243
269 2 19.2 25.6 0 -9.69579
271 2 22.4 25.6 0 -9.66749
273 3 25.6 25.6 0 -11.206
275 4 28.8 25.6 0 -13.3648
277 4 32 25.6 0 -13.2987
279 1 35.2 25.6 0 -11.7424
281 1 38.4 25.6 0 -11.7675
283 1 41.6 25.6 0 -11.7216
285 1 44.8 25.6 0 -11.578
287 1 48 25.6 0 -11.5703
258 4 1.6 27.2 1.6 -13.264
289 3 0 28.8 0 -11.2292
260 4 4.8 27.2 1.6 -13.2869
291 2 3.2 28.8 0 -9.76393
262 4 8 27.2 1.6 -13.3099
293 4 6.4 28.8 0 -13.2388
264 4 11.2 27.2 1.6 -13.3032
295 3 9.6 28.8 0 -11.2475
266 4 14.4 27.2 1.6 -13.2573
297 3 12.8 28.8 0 -11.2598
268 4 17.6 27.2 1.6 -13.3238
299 3 16 28.8 0 -11.2928
270 4 20.8 27.2 1.6 -13.2429
301 3 19.2 28.8 0 -11.2239
272 1 24 27.2 1.6 -11.6954
303 2 22.4 28.8 0 -9.70465
305 3 25.6 28.8 0 -11.3058
274 4 27.2 27.2 1.6 -13.2925
307 4 28.8 28.8 0 -13.358
276 3 30.4 27.2 1.6 -11.2234
309 1 32 28.8 0 -11.8248
278 3 33.6 27.2 1.6 -11.2376
311 4 35.2 28.8 0 -13.252
280 2 36.8 27.2 1.6 -9.68649
313 1 38.4 28.8 0 -11.7704
282 3 40 27.2 1.6 -11.1621
315 4 41.6 28.8 0 -13.2982
284 2 43.2 27.2 1.6 -9.72559
317 4 44.8 28.8 0 -13.2167
286 4 46.4 27.2 1.6 -13.0001
319 4 48 28.8 0 -13.1015
288 3 49.6 27.2 1.6 -11.1369
290 4 1.6 30.4 1.6 -13.2285
321 4 0 32 0 -13.171
292 4 4.8 30.4 1.6 -13.2557
323 4 3.2 32 0 -13.2021
294 4 8 30.4 1.6 -13.2504
325 2 6.4 32 0 -9.7616
296 4 11.2 30.4 1.6 -13.2952
327 2 9.6 32 0 -9.73858
298 4 14.4 30.4 1.6 -13.2297
329 2 12.8 32 0 -9.81813
300 4 17.6 30.4 1.6 -13.3355
331 3 16 32 0 -11.2177
302 4 20.8 30.4 1.6 -13.2262
333 3 19.2 32 0 -11.2106
304 1 24 30.4 1.6 -11.6357
335 4 22.4 32 0 -13.0926
337 1 25.6 32 0 -11.6917
306 3 27.2 30.4 1.6 -11.1684
339 1 28.8 32 0 -11.7236
308 2 30.4 30.4 1.6 -9.77417
341 1 32 32 0 -11.7803
310 3 33.6 30.4 1.6 -11.2734
343 1 35.2 32 0 -11.7742
312 3 36.8 30.4 1.6 -11.1189
345 1 38.4 32 0 -11.7195
314 3 40 30.4 1.6 -11.2356
347 4 41.6 32 0 -13.3372
316 3 43.2 30.4 1.6 -11.172
349 3 44.8 32 0 -11.1508
318 4 46.4 30.4 1.6 -13.2036
351 4 48 32 0 -13.2683
320 2 49.6 30.4 1.6 -9.76453
322 4 1.6 33.6 1.6 -13.2539
353 4 0 35.2 0 -13.1592
324 4 4.8 33.6 1.6 -13.2479
355 3 3.2 35.2 0 -11.1331
326 1 8 33.6 1.6 -11.6525
357 3 6.4 35.2 0 -11.2103
328 4 11.2 33.6 1.6 -13.2285
359 2 9.6 35.2 0 -9.82619
330 1 14.4 33.6 1.6 -11.6481
361 3 12.8 35.2 0 -11.1289
332 4 17.6 33.6 1.6 -13.2628
363 4 16 35.2 0 -13.2257
334 4 20.8 33.6 1.6 -13.2222
365 1 19.2 35.2 0 -11.6804
336 2 24 33.6 1.6 -9.64591
367 1 22.4 35.2 0 -11.6666
369 4 25.6 35.2 0 -13.2109
338 4 27.2 33.6 1.6 -13.2201
371 4 28.8 35.2 0 -13.3109
340 3 30.4 33.6 1.6 -11.114
373 1 32 35.2 0 -11.764
342 3 33.6 33.6 1.6 -11.2266
375 4 35.2 35.2 0 -13.2862
344 4 36.8 33.6 1.6 -13.176
377 1 38.4 35.2 0 -11.6797
346 2 40 33.6 1.6 -9.59681
379 4 41.6 35.2 0 -13.1503
348 4 43.2 33.6 1.6 -13.1629
381 4 44.8 35.2 0 -13.223
350 2 46.4 33.6 1.6 -9.79557
383 4 48 35.2 0 -13.1975
352 3 49.6 33.6 1.6 -11.2146
354 4 1.6 36.8 1.6 -13.1882
385 1 0 38.4 0 -11.6108
356 4 4.8 36.8 1.6 -13.3187
387 4 3.2 38.4 0 -13.1915
358 2 8 36.8 1.6 -9.72669
389 4 6.4 38.4 0 -13.2163
360 4 11.2 36.8 1.6 -13.1907
391 2 9.6 38.4 0 -9.64305
362 4 14.4 36.8 1.6 -13.1643
393 1 12.8 38.4 0 -11.6347
364 3 17.6 36.8 1.6 -11.1591
395 1 16 38.4 0 -11.766
366 3 20.8 36.8 1.6 -11.117
397 1 19.2 38.4 0 -11.8119
368 4 24 36.8 1.6 -13.1819
399 1 22.4 38.4 0 -11.7188
401 1 25.6 38.4 0 -11.6975
370 2 27.2 36.8 1.6 -9.73865
403 4 28.8 38.4 0 -13.1492
372 4 30.4 36.8 1.6 -13.2046
405 1 32 38.4 0 -11.6048
374 4 33.6 36.8 1.6 -13.2754
407 4 35.2 38.4 0 -13.1508
376 4 36.8 36.8 1.6 -13.211
409 4 38.4 38.4 0 -13.2932
378 4 40 36.8 1.6 -13.1653
411 4 41.6 38.4 0 -13.2351
380 4 43.2 36.8 1.6 -13.1441
413 4 44.8 38.4 0 -13.2648
382 4 46.4 36.8 1.6 -13.2192
415 1 48 38.4 0 -11.7127
384 2 49.6 36.8 1.6 -9.7617
386 3 1.6 40 1.6 -11.2267
417 4 0 41.6 0 -13.2765
388 2 4.8 40 1.6 -9.73433
419 4 3.2 41.6 0 -13.2337
390 4 8 40 1.6 -13.2181
421 4 6.4 41.6 0 -13.2004
392 2 11.2 40 1.6 -9.63704
423 4 9.6 41.6 0 -13.2666
394 3 14.4 40 1.6 -11.082
425 1 12.8 41.6 0 -11.7093
396 3 17.6 40 1.6 -11.2037
427 1 16 41.6 0 -11.7803
398 3 20.8 40 1.6 -11.2394
429 1 19.2 41.6 0 -11.7978
400 3 24 40 1.6 -11.0239
431 1 22.4 41.6 0 -11.7616
433 4 25.6 41.6 0 -13.1822
402 4 27.2 40 1.6 -13.2056
435 4 28.8 41.6 0 -13.1848
404 4 30.4 40 1.6 -13.1592
437 4 32 41.6 0 -13.1069
406 4 33.6 40 1.6 -13.1876
439 4 35.2 41.6 0 -13.1858
408 4 36.8 40 1.6 -13.2879
441 3 38.4 41.6 0 -11.2212
410 4 40 40 1.6 -13.3485
443 4 41.6 41.6 0 -13.2457
412 4 43.2 40 1.6 -13.171
445 4 44.8 41.6 0 -13.2687
414 2 46.4 40 1.6 -9.86663
447 1 48 41.6 0 -11.8572
416 3 49.6 40 1.6 -11.3021
418 3 1.6 43.2 1.6 -11.1153
449 1 0 44.8 0 -11.8023
420 4 4.8 43.2 1.6 -13.1591
451 4 3.2 44.8 0 -13.2518
422 3 8 43.2 1.6 -11.1542
453 1 6.4 44.8 0 -11.7395
424 4 11.2 43.2 1.6 -13.239
455 4 9.6 44.8 0 -13.3548
426 3 14.4 43.2 1.6 -11.1247
457 1 12.8 44.8 0 -11.815
428 4 17.6 43.2 1.6 -13.0622
459 1 16 44.8 0 -11.7802
430 3 20.8 43.2 1.6 -11.1965
461 1 19.2 44.8 0 -11.7932
432 4 24 43.2 1.6 -13.2338
463 1 22.4 44.8 0 -11.7643
465 4 25.6 44.8 0 -13.2668
434 4 27.2 43.2 1.6 -13.2925
467 4 28.8 44.8 0 -13.1844
436 4 30.4 43.2 1.6 -13.2642
469 4 32 44.8 0 -13.2156
438 4 33.6 43.2 1.6 -13.3233
471 2 35.2 44.8 0 -9.73349
440 4 36.8 43.2 1.6 -13.2534
473 4 38.4 44.8 0 -13.2498
442 4 40 43.2 1.6 -13.2957
475 4 41.6 44.8 0 -13.2587
444 4 43.2 43.2 1.6 -13.2539
477 4 44.8 44.8 0 -13.2247
446 3 46.4 43.2 1.6 -11.2932
479 1 48 44.8 0 -11.7869
448 3 49.6 43.2 1.6 -11.3404
450 3 1.6 46.4 1.6 -11.2654
481 4 0 48 0 -13.2331
452 3 4.8 46.4 1.6 -11.1598
483 4 3.2 48 0 -13.3181
454 3 8 46.4 1.6 -11.2005
485 1 6.4 48 0 -11.7189
456 3 11.2 46.4 1.6 -11.2008
487 1 9.6 48 0 -11.8419
458 3 14.4 46.4 1.6 -11.2411
489 1 12.8 48 0 -11.8555
460 3 17.6 46.4 1.6 -11.0856
491 1 16 48 0 -11.7802
462 3 20.8 46.4 1.6 -11.2045
493 1 19.2 48 0 -11.7799
464 4 24 46.4 1.6 -13.1944
495 1 22.4 48 0 -11.7431
497 4 25.6 48 0 -13.2041
466 4 27.2 46.4 1.6 -13.2533
499 2 28.8 48 0 -9.70609
468 4 30.4 46.4 1.6 -13.2641
501 2 32 48 0 -9.73542
470 4 33.6 46.4 1.6 -13.2503
503 4 35.2 48 0 -13.2401
472 4 36.8 46.4 1.6 -13.1534
505 3 38.4 48 0 -11.0438
474 4 40 46.4 1.6 -13.1912
507 4 41.6 48 0 -13.1085
476 2 43.2 46.4 1.6 -9.72885
509 1 44.8 48 0 -11.5893
478 2 46.4 46.4 1.6 -9.70075
511 4 48 48 0 -13.0885
480 3 49.6 46.4 1.6 -11.231
482 3 1.6 49.6 1.6 -11.1508
484 3 4.8 49.6 1.6 -11.2356
486 3 8 49.6 1.6 -11.2387
488 3 11.2 49.6 1.6 -11.24
490 3 14.4 49.6 1.6 -11.2026
492 4 17.6 49.6 1.6 -13.1886
494 3 20.8 49.6 1.6 -11.0822
496 4 24 49.6 1.6 -13.1855
498 4 27.2 49.6 1.6 -13.2178
500 4 30.4 49.6 1.6 -13.2564
502 4 33.6 49.6 1.6 -13.2631
504 4 36.8 49.6 1.6 -13.2225
506 4 40 49.6 1.6 -13.261
508 2 43.2 49.6 1.6 -9.56177
510 4 46.4 49.6 1.6 -12.9828
512 4 49.6 49.6 1.6 -13.1223
513 1 0 0 3.2 -11.7409
514 3 1.6 1.6 4.8 -11.2031
515 1 3.2 0 3.2 -11.7845
516 3 4.8 1.6 4.8 -11.1645
517 1 6.4 0 3.2 -11.798
518 3 8 1.6 4.8 -11.2057
519 1 9.6 0 3.2 -11.7986
520 3 11.2 1.6 4.8 -11.0812
521 1 12.8 0 3.2 -11.771
522 4 14.4 1.6 4.8 -13.2387
523 4 16 0 3.2 -13.286
524 3 17.6 1.6 4.8 -11.1034
525 4 19.2 0 3.2 -13.2755
526 4 20.8 1.6 4.8 -13.2016
527 1 22.4 0 3.2 -11.7374
528 3 24 1.6 4.8 -11.2199
529 4 25.6 0 3.2 -13.3256
530 4 27.2 1.6 4.8 -13.1273
531 2 28.8 0 3.2 -9.76787
532 4 30.4 1.6 4.8 -13.194
533 3 32 0 3.2 -11.21
534 4 33.6 1.6 4.8 -13.2663
535 4 35.2 0 3.2 -13.286
536 3 36.8 1.6 4.8 -11.2874
537 4 38.4 0 3.2 -13.3317
538 3 40 1.6 4.8 -11.2943
539 4 41.6 0 3.2 -13.2994
540 3 43.2 1.6 4.8 -11.1542
541 1 44.8 0 3.2 -11.6322
542 4 46.4 1.6 4.8 -13.1526
543 4 48 0 3.2 -13.208
544 3 49.6 1.6 4.8 -11.1603
545 1 0 3.2 3.2 -11.7663
546 3 1.6 4.8 4.8 -11.0777
547 4 3.2 3.2 3.2 -13.1914
548 4 4.8 4.8 4.8 -13.1118
549 1 6.4 3.2 3.2 -11.723
550 3 8 4.8 4.8 -11.1237
551 1 9.6 3.2 3.2 -11.7394
552 3 11.2 4.8 4.8 -11.1533
553 1 12.8 3.2 3.2 -11.7028
554 3 14.4 4.8 4.8 -11.2282
555 1 16 3.2 3.2 -11.7299
556 4 17.6 4.8 4.8 -13.0359
557 4 19.2 3.2 3.2 -13.2218
558 4 20.8 4.8 4.8 -13.0745
559 4 22.4 3.2 3.2 -13.2764
560 3 24 4.8 4.8 -11.1491
561 4 25.6 3.2 3.2 -13.2962
562 4 27.2 4.8 4.8 -13.2089
563 4 28.8 3.2 3.2 -13.17
564 3 30.4 4.8 4.8 -11.0647
565 4 32 3.2 3.2 -13.2453
566 3 33.6 4.8 4.8 -11.1431
567 4 35.2 3.2 3.2 -13.2793
568 3 36.8 4.8 4.8 -11.2573
569 4 38.4 3.2 3.2 -13.3147
570 3 40 4.8 4.8 -11.2378
571 1 41.6 3.2 3.2 -11.7486
572 3 43.2 4.8 4.8 -11.2054
573 1 44.8 3.2 3.2 -11.6872
574 3 46.4 4.8 4.8 -11.1198
575 1 48 3.2 3.2 -11.7664
576 3 49.6 4.8 4.8 -11.2042
577 1 0 6.4 3.2 -11.7538
578 4 1.6 8 4.8 -13.098
579 1 3.2 6.4 3.2 -11.6485
580 3 4.8 8 4.8 -11.12
581 1 6.4 6.4 3.2 -11.7274
582 3 8 8 4.8 -11.1577
583 1 9.6 6.4 3.2 -11.7412
584 4 11.2 8 4.8 -13.0677
585 1 12.8 6.4 3.2 -11.7532
586 3 14.4 8 4.8 -11.2692
587 4 16 6.4 3.2 -13.2337
588 3 17.6 8 4.8 -11.1154
589 1 19.2 6.4 3.2 -11.6626
590 2 20.8 8 4.8 -9.71191
591 1 22.4 6.4 3.2 -11.7107
592 3 24 8 4.8 -11.2401
593 1 25.6 6.4 3.2 -11.7739
594 3 27.2 8 4.8 -11.1543
595 1 28.8 6.4 3.2 -11.672
596 4 30.4 8 4.8 -13.0223
597 1 32 6.4 3.2 -11.6535
598 4 33.6 8 4.8 -13.0802
599 4 35.2 6.4 3.2 -13.2127
600 4 36.8 8 4.8 -13.0811
601 1 38.4 6.4 3.2 -11.7297
602 3 40 8 4.8 -11.2031
603 1 41.6 6.4 3.2 -11.7662
604 3 43.2 8 4.8 -11.2773
605 1 44.8 6.4 3.2 -11.8121
606 3 46.4 8 4.8 -11.2368
607 1 48 6.4 3.2 -11.8558
608 3 49.6 8 4.8 -11.161
609 1 0 9.6 3.2 -11.7387
610 3 1.6 11.2 4.8 -11.1901
611 1 3.2 9.6 3.2 -11.7054
612 3 4.8 11.2 4.8 -11.1921
613 1 6.4 9.6 3.2 -11.7623
614 4 8 11.2 4.8 -13.111
615 4 9.6 9.6 3.2 -13.1509
616 4 11.2 11.2 4.8 -12.9804
617 1 12.8 9.6 3.2 -11.6788
618 3 14.4 11.2 4.8 -11.0749
619 4 16 9.6 3.2 -13.2362
620 4 17.6 11.2 4.8 -13.1241
621 4 19.2 9.6 3.2 -13.2782
622 3 20.8 11.2 4.8 -11.2325
623 1 22.4 9.6 3.2 -11.8289
624 3 24 11.2 4.8 -11.1912
625 4 25.6 9.6 3.2 -13.3348
626 3 27.2 11.2 4.8 -11.228
627 1 28.8 9.6 3.2 -11.7563
628 3 30.4 11.2 4.8 -11.2727
629 4 32 9.6 3.2 -13.2095
630 3 33.6 11.2 4.8 -11.1521
631 1 35.2 9.6 3.2 -11.7193
632 2 36.8 11.2 4.8 -9.73229
633 1 38.4 9.6 3.2 -11.7345
634 3 40 11.2 4.8 -11.2694
635 1 41.6 9.6 3.2 -11.7659
636 3 43.2 11.2 4.8 -11.1113
637 1 44.8 9.6 3.2 -11.7625
638 4 46.4 11.2 4.8 -13.1655
639 1 48 9.6 3.2 -11.7533
640 3 49.6 11.2 4.8 -11.1531
641 4 0 12.8 3.2 -13.2359
642 4 1.6 14.4 4.8 -13.1007
643 4 3.2 12.8 3.2 -13.2295
644 3 4.8 14.4 4.8 -11.1545
645 4 6.4 12.8 3.2 -13.2573
646 3 8 14.4 4.8 -11.2031
647 1 9.6 12.8 3.2 -11.7386
648 3 11.2 14.4 4.8 -11.2029
649 4 12.8 12.8 3.2 -13.2462
650 3 14.4 14.4 4.8 -11.2708
651 4 16 12.8 3.2 -13.23
652 4 17.6 14.4 4.8 -13.1006
653 4 19.2 12.8 3.2 -13.273
654 3 20.8 14.4 4.8 -11.1894
655 4 22.4 12.8 3.2 -13.277
656 4 24 14.4 4.8 -13.2412
657 4 25.6 12.8 3.2 -13.1961
658 4 27.2 14.4 4.8 -13.2053
659 1 28.8 12.8 3.2 -11.6688
660 3 30.4 14.4 4.8 -11.1182
661 4 32 12.8 3.2 -13.3061
662 3 33.6 14.4 4.8 -11.1971
663 4 35.2 12.8 3.2 -13.21
664 4 36.8 14.4 4.8 -13.1195
665 4 38.4 12.8 3.2 -13.2715
666 3 40 14.4 4.8 -11.2248
667 4 41.6 12.8 3.2 -13.2529
668 2 43.2 14.4 4.8 -9.78727
669 4 44.8 12.8 3.2 -13.2242
670 3 46.4 14.4 4.8 -11.2346
671 1 48 12.8 3.2 -11.772
672 3 49.6 14.4 4.8 -11.1914
673 1 0 16 3.2 -11.578
674 2 1.6 17.6 4.8 -9.68276
675 1 3.2 16 3.2 -11.671
676 3 4.8 17.6 4.8 -11.1626
677 1 6.4 16 3.2 -11.8438
678 3 8 17.6 4.8 -11.2034
679 1 9.6 16 3.2 -11.7796
680 3 11.2 17.6 4.8 -11.1604
681 1 12.8 16 3.2 -11.7809
682 3 14.4 17.6 4.8 -11.1939
683 4 16 16 3.2 -13.243
684 2 17.6 17.6 4.8 -9.6971
685 4 19.2 16 3.2 -13.2551
686 3 20.8 17.6 4.8 -11.2617
687 4 22.4 16 3.2 -13.3051
688 3 24 17.6 4.8 -11.1773
689 4 25.6 16 3.2 -13.1953
690 3 27.2 17.6 4.8 -11.2507
691 1 28.8 16 3.2 -11.6464
692 3 30.4 17.6 4.8 -11.2345
693 1 32 16 3.2 -11.744
694 3 33.6 17.6 4.8 -11.2005
695 1 35.2 16 3.2 -11.677
696 4 36.8 17.6 4.8 -13.1246
697 1 38.4 16 3.2 -11.7491
698 3 40 17.6 4.8 -11.1587
699 1 41.6 16 3.2 -11.7619
700 4 43.2 17.6 4.8 -13.1099
701 4 44.8 16 3.2 -13.2502
702 3 46.4 17.6 4.8 -11.1653
703 1 48 16 3.2 -11.7265
704 2 49.6 17.6 4.8 -9.62685
705 1 0 19.2 3.2 -11.7352
706 3 1.6 20.8 4.8 -11.0774
707 1 3.2 19.2 3.2 -11.7535
708 4 4.8 20.8 4.8 -13.1183
709 1 6.4 19.2 3.2 -11.7577
710 2 8 20.8 4.8 -9.73714
711 1 9.6 19.2 3.2 -11.6751
712 4 11.2 20.8 4.8 -13.1568
713 4 12.8 19.2 3.2 -13.1642
714 4 14.4 20.8 4.8 -13.2699
715 4 16 19.2 3.2 -13.2328
716 2 17.6 20.8 4.8 -9.75994
717 1 19.2 19.2 3.2 -11.7245
718 4 20.8 20.8 4.8 -13.1249
719 1 22.4 19.2 3.2 -11.695
720 4 24 20.8 4.8 -13.2369
721 4 25.6 19.2 3.2 -13.2309
722 4 27.2 20.8 4.8 -13.26
723 4 28.8 19.2 3.2 -13.2651
724 3 30.4 20.8 4.8 -11.1914
725 1 32 19.2 3.2 -11.8127
726 2 33.6 20.8 4.8 -9.74253
727 1 35.2 19.2 3.2 -11.8028
728 3 36.8 20.8 4.8 -11.2016
729 4 38.4 19.2 3.2 -13.2622
730 3 40 20.8 4.8 -11.1608
731 1 41.6 19.2 3.2 -11.703
732 2 43.2 20.8 4.8 -9.63121
733 1 44.8 19.2 3.2 -11.7355
734 3 46.4 20.8 4.8 -11.081
735 1 48 19.2 3.2 -11.7202
736 3 49.6 20.8 4.8 -11.2424
737 1 0 22.4 3.2 -11.785
738 3 1.6 24 4.8 -11.157
739 1 3.2 22.4 3.2 -11.7268
740 4 4.8 24 4.8 -13.1696
741 4 6.4 22.4 3.2 -13.1969
742 4 8 24 4.8 -13.1865
743 2 9.6 22.4 3.2 -9.73432
744 4 11.2 24 4.8 -13.2344
745 4 12.8 22.4 3.2 -13.164
746 4 14.4 24 4.8 -13.2959
747 3 16 22.4 3.2 -11.2616
748 4 17.6 24 4.8 -13.2114
749 4 19.2 22.4 3.2 -13.2223
750 1 20.8 24 4.8 -11.6232
751 4 22.4 22.4 3.2 -13.1937
752 4 24 24 4.8 -13.2304
753 3 25.6 22.4 3.2 -11.0804
754 4 27.2 24 4.8 -13.2017
755 4 28.8 22.4 3.2 -13.2758
756 4 30.4 24 4.8 -13.2287
757 1 32 22.4 3.2 -11.759
758 3 33.6 24 4.8 -11.1204
759 1 35.2 22.4 3.2 -11.7841
760 3 36.8 24 4.8 -11.1648
761 1 38.4 22.4 3.2 -11.7642
762 3 40 24 4.8 -11.1626
763 1 41.6 22.4 3.2 -11.6418
764 4 43.2 24 4.8 -13.1168
765 1 44.8 22.4 3.2 -11.6364
766 4 46.4 24 4.8 -13.0874
767 1 48 22.4 3.2 -11.7114
768 3 49.6 24 4.8 -11.16
769 4 0 25.6 3.2 -13.2371
771 2 3.2 25.6 3.2 -9.79036
773 4 6.4 25.6 3.2 -13.2218
775 3 9.6 25.6 3.2 -11.1784
777 4 12.8 25.6 3.2 -13.1661
779 3 16 25.6 3.2 -11.2445
781 3 19.2 25.6 3.2 -11.1386
783 2 22.4 25.6 3.2 -9.66826
785 4 25.6 25.6 3.2 -13.2002
787 4 28.8 25.6 3.2 -13.1952
789 1 32 25.6 3.2 -11.7387
791 1 35.2 25.6 3.2 -11.7183
793 1 38.4 25.6 3.2 -11.7188
795 1 41.6 25.6 3.2 -11.7114
797 4 44.8 25.6 3.2 -13.0973
799 4 48 25.6 3.2 -13.1361
770 4 1.6 27.2 4.8 -13.1876
801 1 0 28.8 3.2 -11.6764
772 4 4.8 27.2 4.8 -13.2163
803 3 3.2 28.8 3.2 -11.2059
774 1 8 27.2 4.8 -11.736
805 3 6.4 28.8 3.2 -11.2531
776 1 11.2 27.2 4.8 -11.7439
807 3 9.6 28.8 3.2 -11.2934
778 4 14.4 27.2 4.8 -13.2689
809 4 12.8 28.8 3.2 -13.2006
780 4 17.6 27.2 4.8 -13.2991
811 2 16 28.8 3.2 -9.76101
782 4 20.8 27.2 4.8 -13.1836
813 4 19.2 28.8 3.2 -13.3139
784 1 24 27.2 4.8 -11.6367
815 2 22.4 28.8 3.2 -9.59647
817 2 25.6 28.8 3.2 -9.72354
786 4 27.2 27.2 4.8 -13.1882
819 4 28.8 28.8 3.2 -13.2502
788 4 30.4 27.2 4.8 -13.197
821 1 32 28.8 3.2 -11.7725
790 3 33.6 27.2 4.8 -11.0392
823 1 35.2 28.8 3.2 -11.7745
792 4 36.8 27.2 4.8 -13.0517
825 1 38.4 28.8 3.2 -11.7198
794 3 40 27.2 4.8 -11.1249
827 1 41.6 28.8 3.2 -11.7529
796 3 43.2 27.2 4.8 -11.1133
829 4 44.8 28.8 3.2 -13.2154
798 4 46.4 27.2 4.8 -13.0738
831 1 48 28.8 3.2 -11.6203
800 2 49.6 27.2 4.8 -9.63073
802 4 1.6 30.4 4.8 -13.1482
833 4 0 32 3.2 -13.197
804 4 4.8 30.4 4.8 -13.246
835 2 3.2 32 3.2 -9.7994
806 4 8 30.4 4.8 -13.2924
837 4 6.4 32 3.2 -13.1326
808 4 11.2 30.4 4.8 -13.3314
839 4 9.6 32 3.2 -13.2136
810 1 14.4 30.4 4.8 -11.7378
841 2 12.8 32 3.2 -9.73091
812 1 17.6 30.4 4.8 -11.745
843 4 16 32 3.2 -13.2053
814 4 20.8 30.4 4.8 -13.2586
845 3 19.2 32 3.2 -11.1627
816 1 24 30.4 4.8 -11.6455
847 4 22.4 32 3.2 -13.2077
849 2 25.6 32 3.2 -9.71102
818 4 27.2 30.4 4.8 -13.2491
851 1 28.8 32 3.2 -11.6938
820 3 30.4 30.4 4.8 -10.9872
853 1 32 32 3.2 -11.7192
822 3 33.6 30.4 4.8 -11.2017
855 4 35.2 32 3.2 -13.3178
824 3 36.8 30.4 4.8 -11.1561
857 1 38.4 32 3.2 -11.6468
826 2 40 30.4 4.8 -9.6248
859 1 41.6 32 3.2 -11.6184
828 4 43.2 30.4 4.8 -13.1941
861 4 44.8 32 3.2 -13.3055
830 3 46.4 30.4 4.8 -11.1078
863 1 48 32 3.2 -11.7537
832 2 49.6 30.4 4.8 -9.69082
834 2 1.6 33.6 4.8 -9.78821
865 4 0 35.2 3.2 -13.3264
836 4 4.8 33.6 4.8 -13.204
867 3 3.2 35.2 3.2 -11.2345
838 2 8 33.6 4.8 -9.73487
869 4 6.4 35.2 3.2 -13.2595
840 3 11.2 33.6 4.8 -11.2355
871 4 9.6 35.2 3.2 -13.2045
842 4 14.4 33.6 4.8 -13.3151
873 4 12.8 35.2 3.2 -13.2685
844 2 17.6 33.6 4.8 -9.78817
875 4 16 35.2 3.2 -13.1832
846 2 20.8 33.6 4.8 -9.81801
877 4 19.2 35.2 3.2 -13.3068
848 4 24 33.6 4.8 -13.296
879 4 22.4 35.2 3.2 -13.1611
881 4 25.6 35.2 3.2 -13.2528
850 4 27.2 33.6 4.8 -13.1906
883 2 28.8 35.2 3.2 -9.70494
852 4 30.4 33.6 4.8 -13.1783
885 4 32 35.2 3.2 -13.2903
854 4 33.6 33.6 4.8 -13.2443
887 3 35.2 35.2 3.2 -11.2055
856 4 36.8 33.6 4.8 -13.2275
889 4 38.4 35.2 3.2 -13.1143
858 4 40 33.6 4.8 -13.0287
891 1 41.6 35.2 3.2 -11.5083
860 2 43.2 33.6 4.8 -9.66486
893 4 44.8 35.2 3.2 -13.1852
862 3 46.4 33.6 4.8 -11.2637
895 4 48 35.2 3.2 -13.2932
864 3 49.6 33.6 4.8 -11.2694
866 4 1.6 36.8 4.8 -13.2572
897 4 0 38.4 3.2 -13.2951
868 2 4.8 36.8 4.8 -9.79224
899 4 3.2 38.4 3.2 -13.31
870 2 8 36.8 4.8 -9.7632
901 4 6.4 38.4 3.2 -13.2057
872 3 11.2 36.8 4.8 -11.1947
903 1 9.6 38.4 3.2 -11.7401
874 3 14.4 36.8 4.8 -11.1466
905 1 12.8 38.4 3.2 -11.6729
876 2 17.6 36.8 4.8 -9.78316
907 1 16 38.4 3.2 -11.747
878 3 20.8 36.8 4.8 -11.1521
909 1 19.2 38.4 3.2 -11.786
880 4 24 36.8 4.8 -13.2226
911 1 22.4 38.4 3.2 -11.6884
913 2 25.6 38.4 3.2 -9.70814
882 4 27.2 36.8 4.8 -13.2771
915 4 28.8 38.4 3.2 -13.2189
884 1 30.4 36.8 4.8 -11.7222
917 3 32 38.4 3.2 -11.1138
886 1 33.6 36.8 4.8 -11.8032
919 3 35.2 38.4 3.2 -11.2997
888 4 36.8 36.8 4.8 -13.3377
921 3 38.4 38.4 3.2 -11.2951
890 1 40 36.8 4.8 -11.6386
923 3 41.6 38.4 3.2 -11.1389
892 4 43.2 36.8 4.8 -13.1902
925 3 44.8 38.4 3.2 -11.227
894 4 46.4 36.8 4.8 -13.2546
927 4 48 38.4 3.2 -13.3484
896 3 49.6 36.8 4.8 -11.1929
898 3 1.6 40 4.8 -11.161
929 1 0 41.6 3.2 -11.8191
900 3 4.8 40 4.8 -11.2726
931 1 3.2 41.6 3.2 -11.7222
902 3 8 40 4.8 -11.2342
933 1 6.4 41.6 3.2 -11.7555
904 3 11.2 40 4.8 -11.236
935 4 9.6 41.6 3.2 -13.2544
906 2 14.4 40 4.8 -9.74883
937 1 12.8 41.6 3.2 -11.7682
908 3 17.6 40 4.8 -11.0802
939 1 16 41.6 3.2 -11.7232
910 4 20.8 40 4.8 -13.0731
941 4 19.2 41.6 3.2 -13.2213
912 4 24 40 4.8 -13.1145
943 4 22.4 41.6 3.2 -13.1988
945 4 25.6 41.6 3.2 -13.2624
914 1 27.2 40 4.8 -11.6773
947 3 28.8 41.6 3.2 -11.1353
916 1 30.4 40 4.8 -11.6884
949 3 32 41.6 3.2 -11.2579
918 1 33.6 40 4.8 -11.804
951 2 35.2 41.6 3.2 -9.84477
920 1 36.8 40 4.8 -11.8701
953 3 38.4 41.6 3.2 -11.2883
922 4 40 40 4.8 -13.2954
955 4 41.6 41.6 3.2 -13.2033
924 4 43.2 40 4.8 -13.2535
957 4 44.8 41.6 3.2 -13.2725
926 3 46.4 40 4.8 -11.2909
959 4 48 41.6 3.2 -13.4
928 3 49.6 40 4.8 -11.3029
930 4 1.6 43.2 4.8 -12.9769
961 1 0 44.8 3.2 -11.722
932 3 4.8 43.2 4.8 -11.078
963 1 3.2 44.8 3.2 -11.6907
934 3 8 43.2 4.8 -11.235
965 1 6.4 44.8 3.2 -11.717
936 3 11.2 43.2 4.8 -11.2352
967 1 9.6 44.8 3.2 -11.7379
938 3 14.4 43.2 4.8 -11.2292
969 4 12.8 44.8 3.2 -13.2596
940 4 17.6 43.2 4.8 -13.0742
971 1 16 44.8 3.2 -11.7164
942 3 20.8 43.2 4.8 -11.1164
973 1 19.2 44.8 3.2 -11.7439
944 4 24 43.2 4.8 -13.2007
975 4 22.4 44.8 3.2 -13.2539
977 3 25.6 44.8 3.2 -11.2069
946 4 27.2 43.2 4.8 -13.2606
979 3 28.8 44.8 3.2 -11.3211
948 4 30.4 43.2 4.8 -13.283
981 3 32 44.8 3.2 -11.2896
950 4 33.6 43.2 4.8 -13.2976
983 2 35.2 44.8 3.2 -9.76354
952 4 36.8 43.2 4.8 -13.3054
985 4 38.4 44.8 3.2 -13.2391
954 4 40 43.2 4.8 -13.2966
987 3 41.6 44.8 3.2 -11.1143
956 4 43.2 43.2 4.8 -13.1894
989 4 44.8 44.8 3.2 -13.2635
958 3 46.4 43.2 4.8 -11.1387
991 4 48 44.8 3.2 -13.3523
960 3 49.6 43.2 4.8 -11.2329
962 4 1.6 46.4 4.8 -13.0634
993 1 0 48 3.2 -11.7505
964 3 4.8 46.4 4.8 -11.0809
995 1 3.2 48 3.2 -11.7662
966 4 8 46.4 4.8 -13.0509
997 1 6.4 48 3.2 -11.7538
968 2 11.2 46.4 4.8 -9.68625
999 1 9.6 48 3.2 -11.7466
970 2 14.4 46.4 4.8 -9.77519
1001 1 12.8 48 3.2 -11.7988
972 3 17.6 46.4 4.8 -11.199
1003 1 16 48 3.2 -11.7674
974 3 20.8 46.4 4.8 -11.1985
1005 1 19.2 48 3.2 -11.7879
976 4 24 46.4 4.8 -13.1835
1007 1 22.4 48 3.2 -11.7094
1009 3 25.6 48 3.2 -11.1914
978 4 27.2 46.4 4.8 -13.2892
1011 4 28.8 48 3.2 -13.3151
980 1 30.4 46.4 4.8 -11.7063
1013 3 32 48 3.2 -11.2146
982 4 33.6 46.4 4.8 -13.1939
1015 4 35.2 48 3.2 -13.1236
984 4 36.8 46.4 4.8 -13.127
1017 4 38.4 48 3.2 -13.1455
986 4 40 46.4 4.8 -13.3061
1019 4 41.6 48 3.2 -13.2614
988 2 43.2 46.4 4.8 -9.6976
1021 1 44.8 48 3.2 -11.6155
990 4 46.4 46.4 4.8 -13.1584
1023 4 48 48 3.2 -13.2639
992 3 49.6 46.4 4.8 -11.1968
994 3 1.6 49.6 4.8 -11.1241
996 2 4.8 49.6 4.8 -9.73544
998 3 8 49.6 4.8 -11.1229
1000 3 11.2 49.6 4.8 -11.2057
1002 3 14.4 49.6 4.8 -11.1645
1004 3 17.6 49.6 4.8 -11.1582
1006 2 20.8 49.6 4.8 -9.71891
1008 3 24 49.6 4.8 -11.1397
1010 2 27.2 49.6 4.8 -9.81294
1012 4 30.4 49.6 4.8 -13.2944
1014 4 33.6 49.6 4.8 -13.2553
1016 4 36.8 49.6 4.8 -13.1759
1018 3 40 49.6 4.8 -11.1633
1020 4 43.2 49.6 4.8 -13.2442
1022 3 46.4 49.6 4.8 -11.0927
1024 3 49.6 49.6 4.8 -11.2299
1025 1 0 0 6.4 -11.753
1026 3 1.6 1.6 8 -11.1979
1027 1 3.2 0 6.4 -11.8121
1028 3 4.8 1.6 8 -11.3089
1029 1 6.4 0 6.4 -11.8123
1030 3 8 1.6 8 -11.1193
1031 1 9.6 0 6.4 -11.7802
1032 4 11.2 1.6 8 -13.1027
1033 1 12.8 0 6.4 -11.7459
1034 3 14.4 1.6 8 -11.0788
1035 1 16 0 6.4 -11.6894
1036 4 17.6 1.6 8 -13.0766
1037 1 19.2 0 6.4 -11.6701
1038 3 20.8 1.6 8 -11.1435
1039 1 22.4 0 6.4 -11.6506
1040 4 24 1.6 8 -13.1647
1041 4 25.6 0 6.4 -13.1065
1042 1 27.2 1.6 8 -11.4688
1043 4 28.8 0 6.4 -13.119
1044 1 30.4 1.6 8 -11.6438
1045 3 32 0 6.4 -11.1425
1046 1 33.6 1.6 8 -11.6845
1047 4 35.2 0 6.4 -13.265
1048 2 36.8 1.6 8 -9.7332
1049 4 38.4 0 6.4 -13.1882
1050 1 40 1.6 8 -11.5205
1051 4 41.6 0 6.4 -13.2653
1052 3 43.2 1.6 8 -11.1449
1053 4 44.8 0 6.4 -13.2421
1054 2 46.4 1.6 8 -9.6676
1055 4 48 0 6.4 -13.228
1056 4 49.6 1.6 8 -13.1193
1057 1 0 3.2 6.4 -11.7313
1058 3 1.6 4.8 8 -11.199
1059 1 3.2 3.2 6.4 -11.8112
1060 3 4.8 4.8 8 -11.1547
1061 1 6.4 3.2 6.4 -11.7623
1062 4 8 4.8 8 -13.2431
1063 1 9.6 3.2 6.4 -11.7411
1064 3 11.2 4.8 8 -11.0641
1065 4 12.8 3.2 6.4 -13.3056
1066 3 14.4 4.8 8 -11.3033
1067 4 16 3.2 6.4 -13.1893
1068 4 17.6 4.8 8 -12.99
1069 4 19.2 3.2 6.4 -13.1456
1070 3 20.8 4.8 8 -11.1928
1071 4 22.4 3.2 6.4 -13.2987
1072 3 24 4.8 8 -11.2733
1073 4 25.6 3.2 6.4 -13.1989
1074 3 27.2 4.8 8 -11.0794
1075 4 28.8 3.2 6.4 -13.1221
1076 3 30.4 4.8 8 -11.1488
1077 4 32 3.2 6.4 -13.2456
1078 4 33.6 4.8 8 -13.2259
1079 4 35.2 3.2 6.4 -13.254
1080 2 36.8 4.8 8 -9.79471
1081 1 38.4 3.2 6.4 -11.7655
1082 3 40 4.8 8 -11.1522
1083 1 41.6 3.2 6.4 -11.7821
1084 3 43.2 4.8 8 -11.1601
1085 1 44.8 3.2 6.4 -11.7231
1086 4 46.4 4.8 8 -13.1214
1087 1 48 3.2 6.4 -11.6213
1088 4 49.6 4.8 8 -13.0361
1089 1 0 6.4 6.4 -11.7244
1090 3 1.6 8 8 -11.1959
1091 1 3.2 6.4 6.4 -11.7413
1092 3 4.8 8 8 -11.2773
1093 4 6.4 6.4 6.4 -13.2651
1094 3 8 8 8 -11.2018
1095 1 9.6 6.4 6.4 -11.7406
1096 2 11.2 8 8 -9.72298
1097 4 12.8 6.4 6.4 -13.2971
1098 3 14.4 8 8 -11.2355
1099 1 16 6.4 6.4 -11.7771
1100 3 17.6 8 8 -11.1646
1101 1 19.2 6.4 6.4 -11.6387
1102 3 20.8 8 8 -11.206
1103 1 22.4 6.4 6.4 -11.7637
1104 3 24 8 8 -11.1639