ITEM: TIMESTEP
0
ITEM: NUMBER OF ATOMS
8192
ITEM: BOX BOUNDS pp pp pp
0.0000000000000000e+00 5.1200000000000003e+01
0.0000000000000000e+00 5.1200000000000003e+01
0.0000000000000000e+00 5.1200000000000003e+01
ITEM: ATOMS id type x y z c_eng
1 1 0 0 0 -11.7399
2 3 1.6 1.6 1.6 -11.1632
3 1 3.2 0 0 -11.8253
4 3 4.8 1.6 1.6 -11.2737
5 1 6.4 0 0 -11.7374
6 3 8 1.6 1.6 -11.1184
7 1 9.6 0 0 -11.6868
8 3 11.2 1.6 1.6 -11.2032
9 1 12.8 0 0 -11.6766
10 2 14.4 1.6 1.6 -9.64567
11 1 16 0 0 -11.7203
12 3 17.6 1.6 1.6 -11.2723
13 4 19.2 0 0 -13.2936
14 3 20.8 1.6 1.6 -11.1887
15 4 22.4 0 0 -13.1798
16 4 24 1.6 1.6 -13.0811
17 4 25.6 0 0 -13.1401
18 4 27.2 1.6 1.6 -13.118
19 3 28.8 0 0 -11.1435
20 4 30.4 1.6 1.6 -13.2704
21 4 32 0 0 -13.1496
22 4 33.6 1.6 1.6 -13.2597
23 4 35.2 0 0 -13.1665
24 4 36.8 1.6 1.6 -13.3293
25 4 38.4 0 0 -13.2826
26 3 40 1.6 1.6 -11.1448
27 1 41.6 0 0 -11.8238
28 4 43.2 1.6 1.6 -13.1115
29 1 44.8 0 0 -11.7508
30 3 46.4 1.6 1.6 -11.1204
31 4 48 0 0 -13.1664
32 4 49.6 1.6 1.6 -13.1195
33 1 0 3.2 0 -11.6591
34 2 1.6 4.8 1.6 -9.65089
35 1 3.2 3.2 0 -11.7254
36 3 4.8 4.8 1.6 -11.1904
37 4 6.4 3.2 0 -13.2535
38 4 8 4.8 1.6 -13.3089
39 4 9.6 3.2 0 -13.2871
40 2 11.2 4.8 1.6 -9.72473
41 1 12.8 3.2 0 -11.7009
42 2 14.4 4.8 1.6 -9.68432
43 1 16 3.2 0 -11.7026
44 3 17.6 4.8 1.6 -11.1613
45 1 19.2 3.2 0 -11.7806
46 3 20.8 4.8 1.6 -11.1566
47 4 22.4 3.2 0 -13.2339
48 4 24 4.8 1.6 -13.1239
49 4 25.6 3.2 0 -13.195
50 3 27.2 4.8 1.6 -11.1882
51 4 28.8 3.2 0 -13.2991
52 4 30.4 4.8 1.6 -13.2961
53 3 32 3.2 0 -11.2715
54 4 33.6 4.8 1.6 -13.2688
55 2 35.2 3.2 0 -9.81604
56 3 36.8 4.8 1.6 -11.1439
57 4 38.4 3.2 0 -13.2756
58 2 40 4.8 1.6 -9.72086
59 1 41.6 3.2 0 -11.6631
60 2 43.2 4.8 1.6 -9.56132
61 4 44.8 3.2 0 -13.125
62 4 46.4 4.8 1.6 -13.0423
63 1 48 3.2 0 -11.7051
64 3 49.6 4.8 1.6 -11.078
65 1 0 6.4 0 -11.6724
66 3 1.6 8 1.6 -11.2024
67 1 3.2 6.4 0 -11.7205
68 3 4.8 8 1.6 -11.3985
69 4 6.4 6.4 0 -13.3169
70 3 8 8 1.6 -11.2087
71 4 9.6 6.4 0 -13.3027
72 3 11.2 8 1.6 -11.1422
73 1 12.8 6.4 0 -11.7305
74 2 14.4 8 1.6 -9.7236
75 4 16 6.4 0 -13.1813
76 2 17.6 8 1.6 -9.76325
77 4 19.2 6.4 0 -13.2142
78 4 20.8 8 1.6 -13.2783
79 4 22.4 6.4 0 -13.2665
80 2 24 8 1.6 -9.75743
81 4 25.6 6.4 0 -13.2742
82 3 27.2 8 1.6 -11.1113
83 4 28.8 6.4 0 -13.2653
84 4 30.4 8 1.6 -13.2248
85 3 32 6.4 0 -11.276
86 4 33.6 8 1.6 -13.2249
87 4 35.2 6.4 0 -13.1922
88 2 36.8 8 1.6 -9.67426
89 1 38.4 6.4 0 -11.6185
90 4 40 8 1.6 -13.0261
91 1 41.6 6.4 0 -11.5956
92 4 43.2 8 1.6 -13.0269
93 1 44.8 6.4 0 -11.5894
94 4 46.4 8 1.6 -13.0351
95 4 48 6.4 0 -13.157
96 3 49.6 8 1.6 -11.1237
97 1 0 9.6 0 -11.7212
98 3 1.6 11.2 1.6 -11.1215
99 4 3.2 9.6 0 -13.2976
100 3 4.8 11.2 1.6 -11.229
101 4 6.4 9.6 0 -13.3567
102 4 8 11.2 1.6 -13.2325
103 4 9.6 9.6 0 -13.297
104 4 11.2 11.2 1.6 -13.2414
105 4 12.8 9.6 0 -13.294
106 3 14.4 11.2 1.6 -11.14
107 4 16 9.6 0 -13.3287
108 3 17.6 11.2 1.6 -11.2273
109 4 19.2 9.6 0 -13.2372
110 3 20.8 11.2 1.6 -11.226
111 4 22.4 9.6 0 -13.3032
112 3 24 11.2 1.6 -11.1128
113 1 25.6 9.6 0 -11.6918
114 4 27.2 11.2 1.6 -13.169
115 4 28.8 9.6 0 -13.2123
116 4 30.4 11.2 1.6 -13.1128
117 3 32 9.6 0 -11.092
118 4 33.6 11.2 1.6 -13.2228
119 4 35.2 9.6 0 -13.2635
120 3 36.8 11.2 1.6 -11.1798
121 4 38.4 9.6 0 -13.21
122 2 40 11.2 1.6 -9.74885
123 1 41.6 9.6 0 -11.6977
124 3 43.2 11.2 1.6 -11.1232
125 1 44.8 9.6 0 -11.7029
126 2 46.4 11.2 1.6 -9.68937
127 1 48 9.6 0 -11.7416
128 3 49.6 11.2 1.6 -11.1593
129 4 0 12.8 0 -13.1802
130 2 1.6 14.4 1.6 -9.65488
131 1 3.2 12.8 0 -11.7275
132 3 4.8 14.4 1.6 -11.233
133 1 6.4 12.8 0 -11.7079
134 2 8 14.4 1.6 -9.70806
135 1 9.6 12.8 0 -11.6647
136 3 11.2 14.4 1.6 -11.1729
137 4 12.8 12.8 0 -13.2743
138 4 14.4 14.4 1.6 -13.2812
139 4 16 12.8 0 -13.3047
140 3 17.6 14.4 1.6 -11.2334
141 1 19.2 12.8 0 -11.7761
142 3 20.8 14.4 1.6 -11.2684
143 4 22.4 12.8 0 -13.2768
144 4 24 14.4 1.6 -13.2811
145 1 25.6 12.8 0 -11.7045
146 2 27.2 14.4 1.6 -9.66533
147 4 28.8 12.8 0 -13.1323
148 3 30.4 14.4 1.6 -11.1498
149 4 32 12.8 0 -13.1894
150 2 33.6 14.4 1.6 -9.76746
151 4 35.2 12.8 0 -13.1945
152 2 36.8 14.4 1.6 -9.75986
153 1 38.4 12.8 0 -11.678
154 3 40 14.4 1.6 -11.0815
155 1 41.6 12.8 0 -11.739
156 3 43.2 14.4 1.6 -11.1666
157 1 44.8 12.8 0 -11.7979
158 3 46.4 14.4 1.6 -11.1199
159 4 48 12.8 0 -13.3061
160 4 49.6 14.4 1.6 -13.1186
161 1 0 16 0 -11.6829
162 3 1.6 17.6 1.6 -11.1234
163 1 3.2 16 0 -11.7055
164 3 4.8 17.6 1.6 -11.1944
165 4 6.4 16 0 -13.2435
166 4 8 17.6 1.6 -13.2741
167 4 9.6 16 0 -13.2718
168 3 11.2 17.6 1.6 -11.2545
169 4 12.8 16 0 -13.2637
170 3 14.4 17.6 1.6 -11.2679
171 4 16 16 0 -13.2768
172 3 17.6 17.6 1.6 -11.1971
173 1 19.2 16 0 -11.7902
174 2 20.8 17.6 1.6 -9.75962
175 4 22.4 16 0 -13.333
176 3 24 17.6 1.6 -11.1755
177 4 25.6 16 0 -13.246
178 2 27.2 17.6 1.6 -9.6638
179 1 28.8 16 0 -11.6988
180 3 30.4 17.6 1.6 -11.122
181 4 32 16 0 -13.2511
182 3 33.6 17.6 1.6 -11.1484
183 4 35.2 16 0 -13.225
184 4 36.8 17.6 1.6 -13.1152
185 4 38.4 16 0 -13.1382
186 2 40 17.6 1.6 -9.67143
187 1 41.6 16 0 -11.6185
188 2 43.2 17.6 1.6 -9.69586
189 1 44.8 16 0 -11.7094
190 4 46.4 17.6 1.6 -13.2006
191 4 48 16 0 -13.249
192 3 49.6 17.6 1.6 -11.0773
193 1 0 19.2 0 -11.7674
194 3 1.6 20.8 1.6 -11.1643
195 1 3.2 19.2 0 -11.7675
196 3 4.8 20.8 1.6 -11.2311
197 4 6.4 19.2 0 -13.3251
198 4 8 20.8 1.6 -13.1953
199 4 9.6 19.2 0 -13.2997
200 2 11.2 20.8 1.6 -9.69312
201 1 12.8 19.2 0 -11.716
202 2 14.4 20.8 1.6 -9.72252
203 4 16 19.2 0 -13.2392
204 2 17.6 20.8 1.6 -9.79344
205 4 19.2 19.2 0 -13.199
206 4 20.8 20.8 1.6 -13.1567
207 4 22.4 19.2 0 -13.221
208 4 24 20.8 1.6 -13.2232
209 4 25.6 19.2 0 -13.2329
210 4 27.2 20.8 1.6 -13.1706
211 1 28.8 19.2 0 -11.6777
212 2 30.4 20.8 1.6 -9.69905
213 1 32 19.2 0 -11.6477
214 4 33.6 20.8 1.6 -13.2315
215 4 35.2 19.2 0 -13.2374
216 3 36.8 20.8 1.6 -11.1501
217 4 38.4 19.2 0 -13.1641
218 3 40 20.8 1.6 -11.2362
219 4 41.6 19.2 0 -13.293
220 3 43.2 20.8 1.6 -11.2969
221 4 44.8 19.2 0 -13.2731
222 3 46.4 20.8 1.6 -11.1027
223 1 48 19.2 0 -11.7452
224 4 49.6 20.8 1.6 -13.162
225 1 0 22.4 0 -11.7314
226 3 1.6 24 1.6 -11.1228
227 1 3.2 22.4 0 -11.8041
228 2 4.8 24 1.6 -9.75732
229 4 6.4 22.4 0 -13.2676
230 2 8 24 1.6 -9.63359
231 4 9.6 22.4 0 -13.1881
232 4 11.2 24 1.6 -13.1118
233 1 12.8 22.4 0 -11.679
234 3 14.4 24 1.6 -11.1833
235 4 16 22.4 0 -13.2345
236 4 17.6 24 1.6 -13.2693
237 2 19.2 22.4 0 -9.78883
238 1 20.8 24 1.6 -11.7245
239 2 22.4 22.4 0 -9.70202
240 4 24 24 1.6 -13.2704
241 2 25.6 22.4 0 -9.79346
242 4 27.2 24 1.6 -13.1779
243 4 28.8 22.4 0 -13.2279
244 2 30.4 24 1.6 -9.76428
245 4 32 22.4 0 -13.2061
246 3 33.6 24 1.6 -11.1496
247 4 35.2 22.4 0 -13.2376
248 4 36.8 24 1.6 -13.1189
249 1 38.4 22.4 0 -11.6583
250 3 40 24 1.6 -11.0816
251 1 41.6 22.4 0 -11.7591
252 3 43.2 24 1.6 -11.1629
253 4 44.8 22.4 0 -13.2779
254 4 46.4 24 1.6 -13.2087
255 4 48 22.4 0 -13.1892
256 4 49.6 24 1.6 -13.0436
257 1 0 25.6 0 -11.7128
259 4 3.2 25.6 0 -13.2146
261 1 6.4 25.6 0 -11.618
263 1 9.6 25.6 0 -11.642
265 4 12.8 25.6 0 -13.2421
267 4 16 25.6 0 -13.3574
269 3 19.2 25.6 0 -11.1781
271 4 22.4 25.6 0 -13.1076
273 3 25.6 25.6 0 -11.2208
275 4 28.8 25.6 0 -13.2307
277 4 32 25.6 0 -13.3258
279 4 35.2 25.6 0 -13.2667
281 4 38.4 25.6 0 -13.1528
283 1 41.6 25.6 0 -11.7728
285 1 44.8 25.6 0 -11.7998
287 4 48 25.6 0 -13.2355
258 4 1.6 27.2 1.6 -13.1687
289 4 0 28.8 0 -13.241
260 4 4.8 27.2 1.6 -13.039
291 4 3.2 28.8 0 -13.2168
262 4 8 27.2 1.6 -13.0677
293 1 6.4 28.8 0 -11.6471
264 3 11.2 27.2 1.6 -11.1332
295 4 9.6 28.8 0 -13.1846
266 4 14.4 27.2 1.6 -13.3273
297 4 12.8 28.8 0 -13.2271
268 4 17.6 27.2 1.6 -13.3471
299 3 16 28.8 0 -11.2395
270 1 20.8 27.2 1.6 -11.6868
301 3 19.2 28.8 0 -11.3217
272 1 24 27.2 1.6 -11.7117
303 2 22.4 28.8 0 -9.66707
305 3 25.6 28.8 0 -11.2252
274 4 27.2 27.2 1.6 -13.2755
307 1 28.8 28.8 0 -11.668
276 3 30.4 27.2 1.6 -11.2257
309 1 32 28.8 0 -11.8405
278 3 33.6 27.2 1.6 -11.2658
311 1 35.2 28.8 0 -11.7934
280 2 36.8 27.2 1.6 -9.63019
313 1 38.4 28.8 0 -11.6989
282 2 40 27.2 1.6 -9.72067
315 1 41.6 28.8 0 -11.8274
284 3 43.2 27.2 1.6 -11.164
317 1 44.8 28.8 0 -11.8552
286 3 46.4 27.2 1.6 -11.2346
319 4 48 28.8 0 -13.3595
288 2 49.6 27.2 1.6 -9.72832
290 2 1.6 30.4 1.6 -9.70282
321 4 0 32 0 -13.2505
292 3 4.8 30.4 1.6 -11.198
323 1 3.2 32 0 -11.6701
294 3 8 30.4 1.6 -11.1146
325 1 6.4 32 0 -11.7177
296 4 11.2 30.4 1.6 -13.1683
327 1 9.6 32 0 -11.7032
298 4 14.4 30.4 1.6 -13.1975
329 4 12.8 32 0 -13.1632
300 1 17.6 30.4 1.6 -11.7248
331 4 16 32 0 -13.2293
302 4 20.8 30.4 1.6 -13.2159
333 3 19.2 32 0 -11.1329
304 4 24 30.4 1.6 -13.27
335 4 22.4 32 0 -13.1793
337 4 25.6 32 0 -13.2611
306 4 27.2 30.4 1.6 -13.2443
339 4 28.8 32 0 -13.2586
308 4 30.4 30.4 1.6 -13.2329
341 4 32 32 0 -13.3047
310 3 33.6 30.4 1.6 -11.2309
343 1 35.2 32 0 -11.7334
312 4 36.8 30.4 1.6 -13.1099
345 1 38.4 32 0 -11.768
314 2 40 30.4 1.6 -9.72144
347 4 41.6 32 0 -13.2554
316 3 43.2 30.4 1.6 -11.2387
349 1 44.8 32 0 -11.7977
318 3 46.4 30.4 1.6 -11.2764
351 1 48 32 0 -11.857
320 3 49.6 30.4 1.6 -11.1891
322 4 1.6 33.6 1.6 -13.1066
353 1 0 35.2 0 -11.7479
324 3 4.8 33.6 1.6 -10.992
355 1 3.2 35.2 0 -11.6188
326 3 8 33.6 1.6 -11.1258
357 1 6.4 35.2 0 -11.6318
328 3 11.2 33.6 1.6 -11.1128
359 1 9.6 35.2 0 -11.7496
330 3 14.4 33.6 1.6 -11.2517
361 4 12.8 35.2 0 -13.2665
332 2 17.6 33.6 1.6 -9.79383
363 4 16 35.2 0 -13.3131
334 4 20.8 33.6 1.6 -13.1097
365 4 19.2 35.2 0 -13.2594
336 4 24 33.6 1.6 -13.23
367 4 22.4 35.2 0 -13.1278
369 4 25.6 35.2 0 -13.2358
338 4 27.2 33.6 1.6 -13.2915
371 4 28.8 35.2 0 -13.2899
340 4 30.4 33.6 1.6 -13.296
373 4 32 35.2 0 -13.2426
342 3 33.6 33.6 1.6 -11.2273
375 1 35.2 35.2 0 -11.7247
344 3 36.8 33.6 1.6 -11.2195
377 4 38.4 35.2 0 -13.2969
346 3 40 33.6 1.6 -11.2201
379 1 41.6 35.2 0 -11.7232
348 3 43.2 33.6 1.6 -11.2039
381 1 44.8 35.2 0 -11.7508
350 3 46.4 33.6 1.6 -11.1651
383 1 48 35.2 0 -11.7499
352 3 49.6 33.6 1.6 -11.164
354 3 1.6 36.8 1.6 -11.0365
385 1 0 38.4 0 -11.7502
356 4 4.8 36.8 1.6 -12.925
387 1 3.2 38.4 0 -11.6906
358 4 8 36.8 1.6 -13.0184
389 1 6.4 38.4 0 -11.6728
360 2 11.2 36.8 1.6 -9.68733
391 1 9.6 38.4 0 -11.7087
362 2 14.4 36.8 1.6 -9.78601
393 1 12.8 38.4 0 -11.729
364 3 17.6 36.8 1.6 -11.223
395 4 16 38.4 0 -13.2998
366 4 20.8 36.8 1.6 -13.0701
397 4 19.2 38.4 0 -13.3027
368 3 24 36.8 1.6 -11.1554
399 1 22.4 38.4 0 -11.7854
401 1 25.6 38.4 0 -11.7408
370 4 27.2 36.8 1.6 -13.223
403 4 28.8 38.4 0 -13.2331
372 4 30.4 36.8 1.6 -13.2282
405 4 32 38.4 0 -13.2322
374 3 33.6 36.8 1.6 -11.141
407 4 35.2 38.4 0 -13.1616
376 4 36.8 36.8 1.6 -13.2174
409 1 38.4 38.4 0 -11.643
378 4 40 36.8 1.6 -13.1901
411 1 41.6 38.4 0 -11.647
380 3 43.2 36.8 1.6 -11.1199
413 4 44.8 38.4 0 -13.2237
382 4 46.4 36.8 1.6 -13.1557
415 1 48 38.4 0 -11.7497
384 3 49.6 36.8 1.6 -11.0811
386 3 1.6 40 1.6 -11.2005
417 1 0 41.6 0 -11.6431
388 3 4.8 40 1.6 -11.2685
419 4 3.2 41.6 0 -13.3011
390 3 8 40 1.6 -11.192
421 4 6.4 41.6 0 -13.2976
392 2 11.2 40 1.6 -9.68081
423 4 9.6 41.6 0 -13.283
394 3 14.4 40 1.6 -11.1233
425 1 12.8 41.6 0 -11.8
396 2 17.6 40 1.6 -9.74326
427 1 16 41.6 0 -11.7356
398 3 20.8 40 1.6 -11.164
429 1 19.2 41.6 0 -11.762
400 3 24 40 1.6 -11.1631
431 1 22.4 41.6 0 -11.8413
433 1 25.6 41.6 0 -11.7739
402 4 27.2 40 1.6 -13.1975
435 1 28.8 41.6 0 -11.7203
404 4 30.4 40 1.6 -13.2011
437 3 32 41.6 0 -11.2206
406 4 33.6 40 1.6 -13.2603
439 2 35.2 41.6 0 -9.79468
408 4 36.8 40 1.6 -13.1891
441 4 38.4 41.6 0 -13.2317
410 4 40 40 1.6 -13.1063
443 4 41.6 41.6 0 -13.206
412 4 43.2 40 1.6 -13.1602
445 4 44.8 41.6 0 -13.2111
414 3 46.4 40 1.6 -11.0912
447 4 48 41.6 0 -13.1369
416 4 49.6 40 1.6 -13.1188
418 3 1.6 43.2 1.6 -11.1145
449 4 0 44.8 0 -13.1468
420 3 4.8 43.2 1.6 -11.1934
451 1 3.2 44.8 0 -11.6607
422 3 8 43.2 1.6 -11.1617
453 1 6.4 44.8 0 -11.6573
424 3 11.2 43.2 1.6 -11.1613
455 1 9.6 44.8 0 -11.7191
426 3 14.4 43.2 1.6 -11.1653
457 1 12.8 44.8 0 -11.8121
428 4 17.6 43.2 1.6 -13.005
459 1 16 44.8 0 -11.7471
430 3 20.8 43.2 1.6 -11.1653
461 1 19.2 44.8 0 -11.7469
432 3 24 43.2 1.6 -11.1595
463 1 22.4 44.8 0 -11.8149
465 4 25.6 44.8 0 -13.2128
434 3 27.2 43.2 1.6 -11.0204
467 4 28.8 44.8 0 -13.2127
436 4 30.4 43.2 1.6 -13.193
469 4 32 44.8 0 -13.2723
438 4 33.6 43.2 1.6 -13.1818
471 4 35.2 44.8 0 -13.081
440 4 36.8 43.2 1.6 -13.1316
473 1 38.4 44.8 0 -11.5228
442 4 40 43.2 1.6 -13.2326
475 1 41.6 44.8 0 -11.6202
444 3 43.2 43.2 1.6 -11.1024
477 1 44.8 44.8 0 -11.6477
446 4 46.4 43.2 1.6 -13.166
479 4 48 44.8 0 -13.1741
448 1 49.6 43.2 1.6 -11.4527
450 2 1.6 46.4 1.6 -9.76165
481 4 0 48 0 -13.308
452 4 4.8 46.4 1.6 -13.2412
483 4 3.2 48 0 -13.2937
454 3 8 46.4 1.6 -11.1598
485 4 6.4 48 0 -13.2706
456 3 11.2 46.4 1.6 -11.1667
487 1 9.6 48 0 -11.6296
458 3 14.4 46.4 1.6 -11.2048
489 1 12.8 48 0 -11.7363
460 2 17.6 46.4 1.6 -9.67758
491 1 16 48 0 -11.7527
462 3 20.8 46.4 1.6 -11.1218
493 1 19.2 48 0 -11.6971
464 4 24 46.4 1.6 -13.1298
495 4 22.4 48 0 -13.1688
497 4 25.6 48 0 -13.1083
466 4 27.2 46.4 1.6 -13.1591
499 3 28.8 48 0 -11.2213
468 4 30.4 46.4 1.6 -13.2132
501 3 32 48 0 -11.1068
470 4 33.6 46.4 1.6 -13.134
503 3 35.2 48 0 -11.1899
472 1 36.8 46.4 1.6 -11.579
505 4 38.4 48 0 -13.1969
474 2 40 46.4 1.6 -9.60385
507 1 41.6 48 0 -11.6632
476 2 43.2 46.4 1.6 -9.65876
509 1 44.8 48 0 -11.6475
478 2 46.4 46.4 1.6 -9.75258
511 1 48 48 0 -11.734
480 3 49.6 46.4 1.6 -11.0998
482 3 1.6 49.6 1.6 -11.192
484 3 4.8 49.6 1.6 -11.1949
486 3 8 49.6 1.6 -11.2366
488 3 11.2 49.6 1.6 -11.1654
490 3 14.4 49.6 1.6 -11.166
492 3 17.6 49.6 1.6 -11.0742
494 4 20.8 49.6 1.6 -13.1693
496 4 24 49.6 1.6 -12.9684
498 1 27.2 49.6 1.6 -11.6343
500 4 30.4 49.6 1.6 -13.2927
502 1 33.6 49.6 1.6 -11.725
504 4 36.8 49.6 1.6 -13.2457
506 3 40 49.6 1.6 -11.3007
508 3 43.2 49.6 1.6 -11.1249
510 3 46.4 49.6 1.6 -11.0791
512 4 49.6 49.6 1.6 -13.2034
513 4 0 0 3.2 -13.1901
514 3 1.6 1.6 4.8 -11.163
515 1 3.2 0 3.2 -11.7484
516 3 4.8 1.6 4.8 -11.1574
517 1 6.4 0 3.2 -11.7583
518 4 8 1.6 4.8 -13.1066
519 1 9.6 0 3.2 -11.7799
520 3 11.2 1.6 4.8 -11.0357
521 1 12.8 0 3.2 -11.8124
522 3 14.4 1.6 4.8 -11.2051
523 1 16 0 3.2 -11.7679
524 3 17.6 1.6 4.8 -11.1632
525 4 19.2 0 3.2 -13.2632
526 2 20.8 1.6 4.8 -9.76972
527 1 22.4 0 3.2 -11.7035
528 3 24 1.6 4.8 -11.0781
529 4 25.6 0 3.2 -13.0784
530 2 27.2 1.6 4.8 -9.67189
531 4 28.8 0 3.2 -13.2178
532 4 30.4 1.6 4.8 -13.3042
533 3 32 0 3.2 -11.1793
534 4 33.6 1.6 4.8 -13.2275
535 3 35.2 0 3.2 -11.1808
536 2 36.8 1.6 4.8 -9.73239
537 4 38.4 0 3.2 -13.3317
538 4 40 1.6 4.8 -13.1066
539 4 41.6 0 3.2 -13.2168
540 2 43.2 1.6 4.8 -9.58934
541 1 44.8 0 3.2 -11.708
542 3 46.4 1.6 4.8 -11.074
543 1 48 0 3.2 -11.7297
544 3 49.6 1.6 4.8 -11.1968
545 1 0 3.2 3.2 -11.7197
546 4 1.6 4.8 4.8 -13.0517
547 1 3.2 3.2 3.2 -11.7591
548 3 4.8 4.8 4.8 -11.1981
549 4 6.4 3.2 3.2 -13.2729
550 2 8 4.8 4.8 -9.59727
551 1 9.6 3.2 3.2 -11.6877
552 2 11.2 4.8 4.8 -9.65406
553 1 12.8 3.2 3.2 -11.7205
554 3 14.4 4.8 4.8 -11.1654
555 1 16 3.2 3.2 -11.7808
556 3 17.6 4.8 4.8 -11.2045
557 1 19.2 3.2 3.2 -11.8279
558 3 20.8 4.8 4.8 -11.1999
559 1 22.4 3.2 3.2 -11.7205
560 3 24 4.8 4.8 -11.1656
561 1 25.6 3.2 3.2 -11.6784
562 3 27.2 4.8 4.8 -11.204
563 4 28.8 3.2 3.2 -13.2128
564 3 30.4 4.8 4.8 -11.0704
565 2 32 3.2 3.2 -9.79323
566 4 33.6 4.8 4.8 -13.2203
567 4 35.2 3.2 3.2 -13.298
568 3 36.8 4.8 4.8 -11.1919
569 4 38.4 3.2 3.2 -13.2802
570 3 40 4.8 4.8 -11.201
571 1 41.6 3.2 3.2 -11.6832
572 3 43.2 4.8 4.8 -11.1572
573 1 44.8 3.2 3.2 -11.6517
574 4 46.4 4.8 4.8 -13.1608
575 4 48 3.2 3.2 -13.2209
576 3 49.6 4.8 4.8 -11.1189
577 1 0 6.4 3.2 -11.7466
578 3 1.6 8 4.8 -11.0794
579 1 3.2 6.4 3.2 -11.759
580 3 4.8 8 4.8 -11.1531
581 4 6.4 6.4 3.2 -13.328
582 4 8 8 4.8 -13.1469
583 4 9.6 6.4 3.2 -13.1641
584 4 11.2 8 4.8 -13.0316
585 1 12.8 6.4 3.2 -11.6803
586 3 14.4 8 4.8 -11.0368
587 1 16 6.4 3.2 -11.7703
588 3 17.6 8 4.8 -11.1997
589 1 19.2 6.4 3.2 -11.8019
590 3 20.8 8 4.8 -11.234
591 4 22.4 6.4 3.2 -13.2564
592 3 24 8 4.8 -11.2414
593 1 25.6 6.4 3.2 -11.7851
594 3 27.2 8 4.8 -11.1615
595 1 28.8 6.4 3.2 -11.7569
596 2 30.4 8 4.8 -9.69653
597 4 32 6.4 3.2 -13.2154
598 3 33.6 8 4.8 -11.0618
599 1 35.2 6.4 3.2 -11.6608
600 4 36.8 8 4.8 -13.1996
601 1 38.4 6.4 3.2 -11.7077
602 3 40 8 4.8 -11.1575
603 4 41.6 6.4 3.2 -13.2045
604 3 43.2 8 4.8 -11.2679
605 4 44.8 6.4 3.2 -13.1264
606 3 46.4 8 4.8 -11.1509
607 1 48 6.4 3.2 -11.712
608 3 49.6 8 4.8 -11.276
609 1 0 9.6 3.2 -11.766
610 4 1.6 11.2 4.8 -12.9713
611 1 3.2 9.6 3.2 -11.7605
612 4 4.8 11.2 4.8 -13.187
613 4 6.4 9.6 3.2 -13.3447
614 3 8 11.2 4.8 -11.1672
615 4 9.6 9.6 3.2 -13.2336
616 2 11.2 11.2 4.8 -9.66177
617 1 12.8 9.6 3.2 -11.6709
618 4 14.4 11.2 4.8 -13.0158
619 1 16 9.6 3.2 -11.6877
620 4 17.6 11.2 4.8 -13.0563
621 4 19.2 9.6 3.2 -13.2738
622 2 20.8 11.2 4.8 -9.78121
623 1 22.4 9.6 3.2 -11.776
624 3 24 11.2 4.8 -11.2395
625 1 25.6 9.6 3.2 -11.7874
626 3 27.2 11.2 4.8 -11.1176
627 4 28.8 9.6 3.2 -13.1808
628 4 30.4 11.2 4.8 -13.0307
629 4 32 9.6 3.2 -13.1976
630 2 33.6 11.2 4.8 -9.72516
631 4 35.2 9.6 3.2 -13.2584
632 3 36.8 11.2 4.8 -11.2573
633 4 38.4 9.6 3.2 -13.2667
634 3 40 11.2 4.8 -11.3043
635 1 41.6 9.6 3.2 -11.7355
636 3 43.2 11.2 4.8 -11.2387
637 4 44.8 9.6 3.2 -13.2084
638 4 46.4 11.2 4.8 -13.1169
639 1 48 9.6 3.2 -11.6941
640 2 49.6 11.2 4.8 -9.69876
641 1 0 12.8 3.2 -11.6417
642 2 1.6 14.4 4.8 -9.58844
643 1 3.2 12.8 3.2 -11.6654
644 3 4.8 14.4 4.8 -11.0684
645 4 6.4 12.8 3.2 -13.2873
646 4 8 14.4 4.8 -13.2005
647 4 9.6 12.8 3.2 -13.2004
648 4 11.2 14.4 4.8 -13.1577
649 4 12.8 12.8 3.2 -13.2023
650 3 14.4 14.4 4.8 -11.0334
651 1 16 12.8 3.2 -11.6784
652 2 17.6 14.4 4.8 -9.71477
653 4 19.2 12.8 3.2 -13.2743
654 3 20.8 14.4 4.8 -11.1604
655 1 22.4 12.8 3.2 -11.816
656 3 24 14.4 4.8 -11.1615
657 4 25.6 12.8 3.2 -13.1986
658 4 27.2 14.4 4.8 -13.0718
659 4 28.8 12.8 3.2 -13.1758
660 2 30.4 14.4 4.8 -9.70431
661 4 32 12.8 3.2 -13.1252
662 4 33.6 14.4 4.8 -13.1173
663 4 35.2 12.8 3.2 -13.2706
664 3 36.8 14.4 4.8 -11.1885
665 1 38.4 12.8 3.2 -11.8273
666 3 40 14.4 4.8 -11.1982
667 1 41.6 12.8 3.2 -11.8121
668 3 43.2 14.4 4.8 -11.166
669 1 44.8 12.8 3.2 -11.7662
670 3 46.4 14.4 4.8 -11.1603
671 1 48 12.8 3.2 -11.694
672 3 49.6 14.4 4.8 -11.1519
673 1 0 16 3.2 -11.6695
674 4 1.6 17.6 4.8 -12.9627
675 1 3.2 16 3.2 -11.6657
676 4 4.8 17.6 4.8 -13.1057
677 4 6.4 16 3.2 -13.2716
678 2 8 17.6 4.8 -9.67053
679 4 9.6 16 3.2 -13.283
680 3 11.2 17.6 4.8 -11.2308
681 4 12.8 16 3.2 -13.3394
682 3 14.4 17.6 4.8 -11.2007
683 1 16 16 3.2 -11.7874
684 3 17.6 17.6 4.8 -11.1249
685 1 19.2 16 3.2 -11.7533
686 4 20.8 17.6 4.8 -13.0698
687 4 22.4 16 3.2 -13.2809
688 3 24 17.6 4.8 -11.191
689 1 25.6 16 3.2 -11.6602
690 4 27.2 17.6 4.8 -13.0687
691 1 28.8 16 3.2 -11.6578
692 3 30.4 17.6 4.8 -11.1925
693 1 32 16 3.2 -11.7871
694 3 33.6 17.6 4.8 -11.1846
695 4 35.2 16 3.2 -13.2113
696 4 36.8 17.6 4.8 -13.1532
697 1 38.4 16 3.2 -11.6408
698 4 40 17.6 4.8 -13.0722
699 1 41.6 16 3.2 -11.7066
700 2 43.2 17.6 4.8 -9.6568
701 1 44.8 16 3.2 -11.7392
702 3 46.4 17.6 4.8 -11.1974
703 1 48 16 3.2 -11.7581
704 3 49.6 17.6 4.8 -11.2369
705 4 0 19.2 3.2 -13.2321
706 2 1.6 20.8 4.8 -9.71466
707 1 3.2 19.2 3.2 -11.7152
708 3 4.8 20.8 4.8 -11.1577
709 4 6.4 19.2 3.2 -13.2398
710 2 8 20.8 4.8 -9.69765
711 4 9.6 19.2 3.2 -13.2372
712 3 11.2 20.8 4.8 -11.1649
713 1 12.8 19.2 3.2 -11.809
714 3 14.4 20.8 4.8 -11.1994
715 1 16 19.2 3.2 -11.8155
716 3 17.6 20.8 4.8 -11.1881
717 1 19.2 19.2 3.2 -11.6458
718 4 20.8 20.8 4.8 -13.2078
719 4 22.4 19.2 3.2 -13.2228
720 4 24 20.8 4.8 -13.2981
721 4 25.6 19.2 3.2 -13.2099
722 3 27.2 20.8 4.8 -11.1434
723 1 28.8 19.2 3.2 -11.7094
724 3 30.4 20.8 4.8 -11.234
725 1 32 19.2 3.2 -11.7754
726 3 33.6 20.8 4.8 -11.2663
727 4 35.2 19.2 3.2 -13.2999
728 3 36.8 20.8 4.8 -11.2632
729 1 38.4 19.2 3.2 -11.6852
730 3 40 20.8 4.8 -11.1935
731 4 41.6 19.2 3.2 -13.2083
732 4 43.2 20.8 4.8 -13.1047
733 4 44.8 19.2 3.2 -13.249
734 3 46.4 20.8 4.8 -11.2381
735 1 48 19.2 3.2 -11.7742
736 3 49.6 20.8 4.8 -11.1197
737 1 0 22.4 3.2 -11.6849
738 3 1.6 24 4.8 -11.1992
739 1 3.2 22.4 3.2 -11.7978
740 3 4.8 24 4.8 -11.1982
741 4 6.4 22.4 3.2 -13.2988
742 3 8 24 4.8 -11.2005
743 1 9.6 22.4 3.2 -11.6825
744 3 11.2 24 4.8 -11.2039
745 1 12.8 22.4 3.2 -11.7485
746 3 14.4 24 4.8 -11.2307
747 4 16 22.4 3.2 -13.2967
748 4 17.6 24 4.8 -13.2975
749 4 19.2 22.4 3.2 -13.3017
750 4 20.8 24 4.8 -13.3505
751 3 22.4 22.4 3.2 -11.2144
752 4 24 24 4.8 -13.2156
753 4 25.6 22.4 3.2 -13.2237
754 4 27.2 24 4.8 -13.1828
755 4 28.8 22.4 3.2 -13.1754
756 2 30.4 24 4.8 -9.73087
757 1 32 22.4 3.2 -11.7426
758 3 33.6 24 4.8 -11.1599
759 4 35.2 22.4 3.2 -13.2831
760 2 36.8 24 4.8 -9.69408
761 1 38.4 22.4 3.2 -11.7804
762 3 40 24 4.8 -11.1967
763 1 41.6 22.4 3.2 -11.7636
764 2 43.2 24 4.8 -9.65998
765 1 44.8 22.4 3.2 -11.735
766 3 46.4 24 4.8 -11.1581
767 4 48 22.4 3.2 -13.1869
768 4 49.6 24 4.8 -13.1577
769 4 0 25.6 3.2 -13.2105
771 1 3.2 25.6 3.2 -11.7021
773 4 6.4 25.6 3.2 -13.1272
775 1 9.6 25.6 3.2 -11.7074
777 4 12.8 25.6 3.2 -13.3117
779 4 16 25.6 3.2 -13.2323
781 3 19.2 25.6 3.2 -11.1949
783 3 22.4 25.6 3.2 -11.0659
785 2 25.6 25.6 3.2 -9.76253
787 4 28.8 25.6 3.2 -13.2291
789 1 32 25.6 3.2 -11.7871
791 1 35.2 25.6 3.2 -11.6395
793 1 38.4 25.6 3.2 -11.6282
795 1 41.6 25.6 3.2 -11.7275
797 1 44.8 25.6 3.2 -11.7023
799 4 48 25.6 3.2 -13.2717
770 3 1.6 27.2 4.8 -11.15
801 1 0 28.8 3.2 -11.7289
772 4 4.8 27.2 4.8 -13.1223
803 4 3.2 28.8 3.2 -13.2097
774 2 8 27.2 4.8 -9.76053
805 4 6.4 28.8 3.2 -13.2603
776 3 11.2 27.2 4.8 -11.1797
807 4 9.6 28.8 3.2 -13.2999
778 4 14.4 27.2 4.8 -13.2346
809 2 12.8 28.8 3.2 -9.77853
780 1 17.6 27.2 4.8 -11.6631
811 3 16 28.8 3.2 -11.1025
782 1 20.8 27.2 4.8 -11.7219
813 2 19.2 28.8 3.2 -9.68787
784 1 24 27.2 4.8 -11.6343
815 4 22.4 28.8 3.2 -13.1118
817 3 25.6 28.8 3.2 -11.1424
786 4 27.2 27.2 4.8 -13.2343
819 4 28.8 28.8 3.2 -13.2662
788 3 30.4 27.2 4.8 -11.1359
821 4 32 28.8 3.2 -13.3036
790 4 33.6 27.2 4.8 -13.2319
823 4 35.2 28.8 3.2 -13.2078
792 4 36.8 27.2 4.8 -12.9849
825 1 38.4 28.8 3.2 -11.6427
794 2 40 27.2 4.8 -9.7016
827 4 41.6 28.8 3.2 -13.1839
796 4 43.2 27.2 4.8 -13.1567
829 1 44.8 28.8 3.2 -11.7853
798 3 46.4 27.2 4.8 -11.227
831 1 48 28.8 3.2 -11.8
800 3 49.6 27.2 4.8 -11.1827
802 3 1.6 30.4 4.8 -11.2341
833 1 0 32 3.2 -11.7219
804 3 4.8 30.4 4.8 -11.1548
835 1 3.2 32 3.2 -11.7345
806 3 8 30.4 4.8 -11.1858
837 1 6.4 32 3.2 -11.7937
808 4 11.2 30.4 4.8 -13.1517
839 1 9.6 32 3.2 -11.6557
810 4 14.4 30.4 4.8 -13.1172
841 1 12.8 32 3.2 -11.6383
812 1 17.6 30.4 4.8 -11.5817
843 4 16 32 3.2 -13.1931
814 1 20.8 30.4 4.8 -11.6221
845 4 19.2 32 3.2 -13.1035
816 1 24 30.4 4.8 -11.7202
847 3 22.4 32 3.2 -11.0142
849 3 25.6 32 3.2 -11.3239
818 4 27.2 30.4 4.8 -13.3099
851 3 28.8 32 3.2 -11.2793
820 4 30.4 30.4 4.8 -13.2976
853 4 32 32 3.2 -13.3047
822 3 33.6 30.4 4.8 -11.2598
855 1 35.2 32 3.2 -11.7588
824 3 36.8 30.4 4.8 -11.1452
857 4 38.4 32 3.2 -13.2422
826 2 40 30.4 4.8 -9.76015
859 1 41.6 32 3.2 -11.7431
828 2 43.2 30.4 4.8 -9.75379
861 1 44.8 32 3.2 -11.8119
830 3 46.4 30.4 4.8 -11.2333
863 1 48 32 3.2 -11.7975
832 4 49.6 30.4 4.8 -13.2379
834 3 1.6 33.6 4.8 -11.1925
865 1 0 35.2 3.2 -11.7654
836 2 4.8 33.6 4.8 -9.68494
867 1 3.2 35.2 3.2 -11.6646
838 2 8 33.6 4.8 -9.72645
869 1 6.4 35.2 3.2 -11.6633
840 4 11.2 33.6 4.8 -13.1904
871 1 9.6 35.2 3.2 -11.692
842 3 14.4 33.6 4.8 -11.2144
873 4 12.8 35.2 3.2 -13.2793
844 2 17.6 33.6 4.8 -9.73153
875 4 16 35.2 3.2 -13.3231
846 4 20.8 33.6 4.8 -13.0789
877 1 19.2 35.2 3.2 -11.625
848 4 24 33.6 4.8 -13.2452
879 1 22.4 35.2 3.2 -11.6142
881 4 25.6 35.2 3.2 -13.3051
850 4 27.2 33.6 4.8 -13.3405
883 3 28.8 35.2 3.2 -11.2099
852 4 30.4 33.6 4.8 -13.2519
885 4 32 35.2 3.2 -13.258
854 2 33.6 33.6 4.8 -9.73457
887 4 35.2 35.2 3.2 -13.3014
856 4 36.8 33.6 4.8 -13.2877
889 3 38.4 35.2 3.2 -11.2579
858 4 40 33.6 4.8 -13.2251
891 1 41.6 35.2 3.2 -11.7534
860 3 43.2 33.6 4.8 -11.1161
893 1 44.8 35.2 3.2 -11.7482
862 3 46.4 33.6 4.8 -11.2386
895 1 48 35.2 3.2 -11.7029
864 3 49.6 33.6 4.8 -11.1591
866 3 1.6 36.8 4.8 -11.1237
897 1 0 38.4 3.2 -11.7733
868 2 4.8 36.8 4.8 -9.66396
899 1 3.2 38.4 3.2 -11.7665
870 3 8 36.8 4.8 -11.1945
901 4 6.4 38.4 3.2 -13.2162
872 3 11.2 36.8 4.8 -10.9823
903 1 9.6 38.4 3.2 -11.6695
874 4 14.4 36.8 4.8 -13.2358
905 1 12.8 38.4 3.2 -11.6493
876 3 17.6 36.8 4.8 -11.1898
907 1 16 38.4 3.2 -11.7706
878 2 20.8 36.8 4.8 -9.6973
909 1 19.2 38.4 3.2 -11.7536
880 3 24 36.8 4.8 -11.1395
911 1 22.4 38.4 3.2 -11.7207
913 4 25.6 38.4 3.2 -13.2471
882 4 27.2 36.8 4.8 -13.3297
915 3 28.8 38.4 3.2 -11.1694
884 4 30.4 36.8 4.8 -13.2902
917 1 32 38.4 3.2 -11.6557
886 2 33.6 36.8 4.8 -9.77011
919 4 35.2 38.4 3.2 -13.1589
888 4 36.8 36.8 4.8 -13.213
921 2 38.4 38.4 3.2 -9.74257
890 4 40 36.8 4.8 -13.2579
923 4 41.6 38.4 3.2 -13.122
892 3 43.2 36.8 4.8 -11.2229
925 4 44.8 38.4 3.2 -13.2729
894 4 46.4 36.8 4.8 -13.0688
927 4 48 38.4 3.2 -13.2159
896 2 49.6 36.8 4.8 -9.69015
898 3 1.6 40 4.8 -11.2438
929 1 0 41.6 3.2 -11.6291
900 3 4.8 40 4.8 -11.2408
931 1 3.2 41.6 3.2 -11.8696
902 3 8 40 4.8 -11.117
933 1 6.4 41.6 3.2 -11.8063
904 4 11.2 40 4.8 -12.9128
935 1 9.6 41.6 3.2 -11.6274
906 3 14.4 40 4.8 -11.1208
937 1 12.8 41.6 3.2 -11.6796
908 3 17.6 40 4.8 -11.2371
939 1 16 41.6 3.2 -11.7467
910 3 20.8 40 4.8 -11.1593
941 1 19.2 41.6 3.2 -11.7466
912 4 24 40 4.8 -13.2352
943 1 22.4 41.6 3.2 -11.7528
945 4 25.6 41.6 3.2 -13.223
914 4 27.2 40 4.8 -13.2793
947 4 28.8 41.6 3.2 -13.1958
916 4 30.4 40 4.8 -13.2501
949 2 32 41.6 3.2 -9.6687
918 4 33.6 40 4.8 -13.1816
951 3 35.2 41.6 3.2 -11.1828
920 1 36.8 40 4.8 -11.6488
953 3 38.4 41.6 3.2 -11.176
922 4 40 40 4.8 -13.2057
955 4 41.6 41.6 3.2 -13.2267
924 4 43.2 40 4.8 -13.1914
957 4 44.8 41.6 3.2 -13.2323
926 3 46.4 40 4.8 -11.2264
959 4 48 41.6 3.2 -13.1463
928 3 49.6 40 4.8 -11.1204
930 3 1.6 43.2 4.8 -11.1607
961 1 0 44.8 3.2 -11.6305
932 3 4.8 43.2 4.8 -11.1996
963 4 3.2 44.8 3.2 -13.2515
934 4 8 43.2 4.8 -12.9596
965 1 6.4 44.8 3.2 -11.7511
936 4 11.2 43.2 4.8 -12.9165
967 1 9.6 44.8 3.2 -11.6792
938 3 14.4 43.2 4.8 -11.1638
969 1 12.8 44.8 3.2 -11.7667
940 3 17.6 43.2 4.8 -11.1653
971 1 16 44.8 3.2 -11.7469
942 3 20.8 43.2 4.8 -11.1654
973 1 19.2 44.8 3.2 -11.7468
944 4 24 43.2 4.8 -13.0678
975 1 22.4 44.8 3.2 -11.7048
977 1 25.6 44.8 3.2 -11.5625
946 4 27.2 43.2 4.8 -13.1805
979 4 28.8 44.8 3.2 -13.1542
948 1 30.4 43.2 4.8 -11.6388
981 4 32 44.8 3.2 -12.9599
950 1 33.6 43.2 4.8 -11.6159
983 4 35.2 44.8 3.2 -13.0352
952 4 36.8 43.2 4.8 -13.2104
985 2 38.4 44.8 3.2 -9.70086
954 4 40 43.2 4.8 -13.2965
987 4 41.6 44.8 3.2 -13.202
956 4 43.2 43.2 4.8 -13.2228
989 4 44.8 44.8 3.2 -13.2379
958 2 46.4 43.2 4.8 -9.76715
991 4 48 44.8 3.2 -13.1513
960 4 49.6 43.2 4.8 -12.9951
962 2 1.6 46.4 4.8 -9.65643
993 4 0 48 3.2 -13.1806
964 3 4.8 46.4 4.8 -11.0766
995 1 3.2 48 3.2 -11.6677
966 3 8 46.4 4.8 -11.1956
997 4 6.4 48 3.2 -13.2874
968 2 11.2 46.4 4.8 -9.74745
999 1 9.6 48 3.2 -11.8418
970 3 14.4 46.4 4.8 -11.2411
1001 1 12.8 48 3.2 -11.8122
972 3 17.6 46.4 4.8 -11.1226
1003 1 16 48 3.2 -11.7538
974 3 20.8 46.4 4.8 -11.2001
1005 1 19.2 48 3.2 -11.7536
976 2 24 46.4 4.8 -9.59013
1007 4 22.4 48 3.2 -13.2171
1009 4 25.6 48 3.2 -13.1131
978 4 27.2 46.4 4.8 -13.1499
1011 3 28.8 48 3.2 -11.1778
980 4 30.4 46.4 4.8 -13.1997
1013 4 32 48 3.2 -13.1568
982 1 33.6 46.4 4.8 -11.5988
1015 3 35.2 48 3.2 -11.116
984 1 36.8 46.4 4.8 -11.6476
1017 4 38.4 48 3.2 -13.2038
986 4 40 46.4 4.8 -13.2329
1019 1 41.6 48 3.2 -11.7292
988 2 43.2 46.4 4.8 -9.73351
1021 1 44.8 48 3.2 -11.7442
990 3 46.4 46.4 4.8 -11.2127
1023 4 48 48 3.2 -13.2548
992 4 49.6 46.4 4.8 -13.1504
994 4 1.6 49.6 4.8 -13.0682
996 4 4.8 49.6 4.8 -13.1122
998 3 8 49.6 4.8 -11.1535
1000 3 11.2 49.6 4.8 -11.2402
1002 3 14.4 49.6 4.8 -11.1645
1004 4 17.6 49.6 4.8 -13.1528
1006 3 20.8 49.6 4.8 -11.1579
1008 3 24 49.6 4.8 -11.1515
1010 4 27.2 49.6 4.8 -13.196
1012 4 30.4 49.6 4.8 -13.2705
1014 1 33.6 49.6 4.8 -11.7237
1016 4 36.8 49.6 4.8 -13.2818
1018 3 40 49.6 4.8 -11.1849
1020 2 43.2 49.6 4.8 -9.75472
1022 2 46.4 49.6 4.8 -9.75242
1024 2 49.6 49.6 4.8 -9.60064
1025 1 0 0 6.4 -11.6872
1026 3 1.6 1.6 8 -11.1987
1027 4 3.2 0 6.4 -13.249
1028 3 4.8 1.6 8 -11.2403
1029 1 6.4 0 6.4 -11.7411
1030 3 8 1.6 8 -11.036
1031 1 9.6 0 6.4 -11.7371
1032 4 11.2 1.6 8 -13.1146
1033 1 12.8 0 6.4 -11.7975
1034 3 14.4 1.6 8 -11.1983
1035 1 16 0 6.4 -11.7617
1036 3 17.6 1.6 8 -11.2033
1037 1 19.2 0 6.4 -11.7582
1038 3 20.8 1.6 8 -11.1581
1039 1 22.4 0 6.4 -11.7243
1040 4 24 1.6 8 -13.1668
1041 4 25.6 0 6.4 -13.1238
1042 4 27.2 1.6 8 -13.0619
1043 4 28.8 0 6.4 -13.191
1044 3 30.4 1.6 8 -11.0913
1045 3 32 0 6.4 -11.1296
1046 4 33.6 1.6 8 -13.2506
1047 4 35.2 0 6.4 -13.2934
1048 4 36.8 1.6 8 -13.1494
1049 4 38.4 0 6.4 -13.1211
1050 4 40 1.6 8 -13.0364
1051 1 41.6 0 6.4 -11.6881
1052 2 43.2 1.6 8 -9.63568
1053 1 44.8 0 6.4 -11.6636
1054 4 46.4 1.6 8 -13.1132
1055 1 48 0 6.4 -11.6285
1056 2 49.6 1.6 8 -9.65899
1057 1 0 3.2 6.4 -11.7552
1058 3 1.6 4.8 8 -11.0745
1059 1 3.2 3.2 6.4 -11.7934
1060 3 4.8 4.8 8 -11.0817
1061 1 6.4 3.2 6.4 -11.7373
1062 2 8 4.8 8 -9.68418
1063 1 9.6 3.2 6.4 -11.6397
1064 3 11.2 4.8 8 -11.1498
1065 1 12.8 3.2 6.4 -11.771
1066 3 14.4 4.8 8 -11.2352
1067 1 16 3.2 6.4 -11.8121
1068 2 17.6 4.8 8 -9.74688
1069 1 19.2 3.2 6.4 -11.7527
1070 2 20.8 4.8 8 -9.72525
1071 1 22.4 3.2 6.4 -11.7134
1072 2 24 4.8 8 -9.72414
1073 1 25.6 3.2 6.4 -11.6626
1074 2 27.2 4.8 8 -9.69861
1075 1 28.8 3.2 6.4 -11.6862
1076 2 30.4 4.8 8 -9.75655
1077 1 32 3.2 6.4 -11.7121
1078 3 33.6 4.8 8 -11.1386
1079 4 35.2 3.2 6.4 -13.1864
1080 3 36.8 4.8 8 -11.2231
1081 1 38.4 3.2 6.4 -11.6917
1082 3 40 4.8 8 -11.1609
1083 1 41.6 3.2 6.4 -11.6636
1084 3 43.2 4.8 8 -11.1657
1085 1 44.8 3.2 6.4 -11.6848
1086 3 46.4 4.8 8 -11.1192
1087 4 48 3.2 6.4 -13.2551
1088 2 49.6 4.8 8 -9.75285
1089 1 0 6.4 6.4 -11.7171
1090 4 1.6 8 8 -13.0673
1091 1 3.2 6.4 6.4 -11.6744
1092 4 4.8 8 8 -13.0311
1093 1 6.4 6.4 6.4 -11.6242
1094 4 8 8 8 -12.985
1095 1 9.6 6.4 6.4 -11.5858
1096 2 11.2 8 8 -9.6969
1097 1 12.8 6.4 6.4 -11.7286
1098 3 14.4 8 8 -11.2
1099 1 16 6.4 6.4 -11.828
1100 3 17.6 8 8 -11.3064
1101 1 19.2 6.4 6.4 -11.8114
1102 3 20.8 8 8 -11.3364
1103 1 22.4 6.4 6.4 -11.8118