ITEM: TIMESTEP
0
ITEM: NUMBER OF ATOMS
8192
ITEM: BOX BOUNDS pp pp pp
0.0000000000000000e+00 5.1200000000000003e+01
0.0000000000000000e+00 5.1200000000000003e+01
0.0000000000000000e+00 5.1200000000000003e+01
ITEM: ATOMS id type x y z c_eng
1 1 0 0 0 -11.7391
2 3 1.6 1.6 1.6 -11.2384
3 4 3.2 0 0 -13.2743
4 3 4.8 1.6 1.6 -11.1175
5 4 6.4 0 0 -13.2171
6 3 8 1.6 1.6 -11.201
7 1 9.6 0 0 -11.7559
8 3 11.2 1.6 1.6 -11.1956
9 4 12.8 0 0 -13.3319
10 3 14.4 1.6 1.6 -11.2395
11 1 16 0 0 -11.7589
12 3 17.6 1.6 1.6 -11.164
13 1 19.2 0 0 -11.783
14 3 20.8 1.6 1.6 -11.2755
15 1 22.4 0 0 -11.8279
16 3 24 1.6 1.6 -11.1199
17 1 25.6 0 0 -11.5914
18 3 27.2 1.6 1.6 -11.1009
19 4 28.8 0 0 -13.034
20 4 30.4 1.6 1.6 -13.2407
21 3 32 0 0 -11.1506
22 4 33.6 1.6 1.6 -13.3171
23 3 35.2 0 0 -11.2203
24 4 36.8 1.6 1.6 -13.2331
25 3 38.4 0 0 -11.219
26 4 40 1.6 1.6 -13.3485
27 3 41.6 0 0 -11.2127
28 4 43.2 1.6 1.6 -13.1388
29 4 44.8 0 0 -13.1239
30 4 46.4 1.6 1.6 -13.0789
31 4 48 0 0 -13.187
32 3 49.6 1.6 1.6 -11.1063
33 1 0 3.2 0 -11.6432
34 3 1.6 4.8 1.6 -11.1177
35 1 3.2 3.2 0 -11.6863
36 4 4.8 4.8 1.6 -12.9825
37 1 6.4 3.2 0 -11.6628
38 4 8 4.8 1.6 -13.0667
39 4 9.6 3.2 0 -13.313
40 3 11.2 4.8 1.6 -11.1626
41 1 12.8 3.2 0 -11.8697
42 3 14.4 4.8 1.6 -11.1654
43 1 16 3.2 0 -11.78
44 3 17.6 4.8 1.6 -11.1984
45 1 19.2 3.2 0 -11.766
46 3 20.8 4.8 1.6 -11.1555
47 1 22.4 3.2 0 -11.7022
48 4 24 4.8 1.6 -13.1633
49 1 25.6 3.2 0 -11.6612
50 3 27.2 4.8 1.6 -11.1855
51 4 28.8 3.2 0 -13.1537
52 2 30.4 4.8 1.6 -9.70711
53 2 32 3.2 0 -9.79027
54 4 33.6 4.8 1.6 -13.1847
55 3 35.2 3.2 0 -11.2882
56 4 36.8 4.8 1.6 -13.3587
57 3 38.4 3.2 0 -11.2819
58 4 40 4.8 1.6 -13.1802
59 3 41.6 3.2 0 -11.2722
60 4 43.2 4.8 1.6 -13.1693
61 4 44.8 3.2 0 -13.2454
62 3 46.4 4.8 1.6 -11.1912
63 1 48 3.2 0 -11.6399
64 2 49.6 4.8 1.6 -9.71367
65 1 0 6.4 0 -11.6017
66 3 1.6 8 1.6 -11.2668
67 4 3.2 6.4 0 -13.2394
68 3 4.8 8 1.6 -11.2
69 1 6.4 6.4 0 -11.6667
70 3 8 8 1.6 -11.1659
71 1 9.6 6.4 0 -11.7981
72 3 11.2 8 1.6 -11.1235
73 1 12.8 6.4 0 -11.812
74 2 14.4 8 1.6 -9.71314
75 1 16 6.4 0 -11.7735
76 2 17.6 8 1.6 -9.75909
77 4 19.2 6.4 0 -13.243
78 4 20.8 8 1.6 -13.2907
79 4 22.4 6.4 0 -13.1377
80 3 24 8 1.6 -11.0892
81 4 25.6 6.4 0 -13.2441
82 2 27.2 8 1.6 -9.78428
83 4 28.8 6.4 0 -13.1612
84 2 30.4 8 1.6 -9.69978
85 2 32 6.4 0 -9.73779
86 4 33.6 8 1.6 -13.2125
87 3 35.2 6.4 0 -11.2356
88 3 36.8 8 1.6 -11.2402
89 4 38.4 6.4 0 -13.3812
90 2 40 8 1.6 -9.73233
91 4 41.6 6.4 0 -13.2146
92 4 43.2 8 1.6 -13.1657
93 4 44.8 6.4 0 -13.2886
94 3 46.4 8 1.6 -11.1549
95 1 48 6.4 0 -11.653
96 2 49.6 8 1.6 -9.66943
97 4 0 9.6 0 -13.2541
98 3 1.6 11.2 1.6 -11.1208
99 1 3.2 9.6 0 -11.8106
100 3 4.8 11.2 1.6 -11.2444
101 1 6.4 9.6 0 -11.7803
102 3 8 11.2 1.6 -11.1226
103 1 9.6 9.6 0 -11.7802
104 3 11.2 11.2 1.6 -11.2438
105 1 12.8 9.6 0 -11.7901
106 3 14.4 11.2 1.6 -11.2
107 4 16 9.6 0 -13.2757
108 3 17.6 11.2 1.6 -11.2593
109 4 19.2 9.6 0 -13.2172
110 4 20.8 11.2 1.6 -13.2232
111 4 22.4 9.6 0 -13.2116
112 4 24 11.2 1.6 -13.219
113 4 25.6 9.6 0 -13.2708
114 3 27.2 11.2 1.6 -11.1146
115 1 28.8 9.6 0 -11.6364
116 3 30.4 11.2 1.6 -11.163
117 4 32 9.6 0 -13.2014
118 3 33.6 11.2 1.6 -11.1104
119 4 35.2 9.6 0 -13.2623
120 4 36.8 11.2 1.6 -13.1393
121 4 38.4 9.6 0 -13.167
122 4 40 11.2 1.6 -13.174
123 2 41.6 9.6 0 -9.79172
124 3 43.2 11.2 1.6 -11.0718
125 4 44.8 9.6 0 -13.2193
126 4 46.4 11.2 1.6 -13.0699
127 1 48 9.6 0 -11.6814
128 2 49.6 11.2 1.6 -9.72438
129 1 0 12.8 0 -11.7178
130 3 1.6 14.4 1.6 -11.1222
131 1 3.2 12.8 0 -11.7098
132 3 4.8 14.4 1.6 -11.1952
133 1 6.4 12.8 0 -11.7686
134 2 8 14.4 1.6 -9.80927
135 1 9.6 12.8 0 -11.771
136 3 11.2 14.4 1.6 -11.1648
137 1 12.8 12.8 0 -11.731
138 3 14.4 14.4 1.6 -11.1569
139 4 16 12.8 0 -13.309
140 3 17.6 14.4 1.6 -11.2896
141 4 19.2 12.8 0 -13.2624
142 3 20.8 14.4 1.6 -11.1662
143 4 22.4 12.8 0 -13.1506
144 2 24 14.4 1.6 -9.77371
145 4 25.6 12.8 0 -13.1624
146 3 27.2 14.4 1.6 -11.2262
147 1 28.8 12.8 0 -11.6509
148 2 30.4 14.4 1.6 -9.66596
149 4 32 12.8 0 -13.2399
150 4 33.6 14.4 1.6 -13.1579
151 2 35.2 12.8 0 -9.7645
152 3 36.8 14.4 1.6 -11.1729
153 4 38.4 12.8 0 -13.1923
154 3 40 14.4 1.6 -11.2683
155 1 41.6 12.8 0 -11.733
156 3 43.2 14.4 1.6 -11.1654
157 1 44.8 12.8 0 -11.6574
158 2 46.4 14.4 1.6 -9.63346
159 4 48 12.8 0 -13.1341
160 2 49.6 14.4 1.6 -9.71934
161 1 0 16 0 -11.753
162 3 1.6 17.6 1.6 -11.1996
163 1 3.2 16 0 -11.7507
164 4 4.8 17.6 1.6 -13.1362
165 4 6.4 16 0 -13.3121
166 2 8 17.6 1.6 -9.73779
167 1 9.6 16 0 -11.774
168 4 11.2 17.6 1.6 -13.0921
169 1 12.8 16 0 -11.7211
170 2 14.4 17.6 1.6 -9.79264
171 4 16 16 0 -13.197
172 4 17.6 17.6 1.6 -13.1693
173 4 19.2 16 0 -13.2315
174 4 20.8 17.6 1.6 -13.1865
175 2 22.4 16 0 -9.69764
176 4 24 17.6 1.6 -13.2222
177 4 25.6 16 0 -13.1837
178 3 27.2 17.6 1.6 -11.2279
179 4 28.8 16 0 -13.2427
180 3 30.4 17.6 1.6 -11.1871
181 4 32 16 0 -13.1535
182 3 33.6 17.6 1.6 -11.2267
183 4 35.2 16 0 -13.2965
184 3 36.8 17.6 1.6 -11.3699
185 4 38.4 16 0 -13.3547
186 3 40 17.6 1.6 -11.1919
187 1 41.6 16 0 -11.7438
188 4 43.2 17.6 1.6 -13.1647
189 4 44.8 16 0 -13.2117
190 4 46.4 17.6 1.6 -13.1594
191 4 48 16 0 -13.2434
192 3 49.6 17.6 1.6 -11.1575
193 1 0 19.2 0 -11.7531
194 3 1.6 20.8 1.6 -11.1157
195 1 3.2 19.2 0 -11.6565
196 4 4.8 20.8 1.6 -13.0371
197 1 6.4 19.2 0 -11.6536
198 4 8 20.8 1.6 -13.2723
199 4 9.6 19.2 0 -13.1824
200 4 11.2 20.8 1.6 -13.2293
201 1 12.8 19.2 0 -11.7257
202 3 14.4 20.8 1.6 -11.2409
203 4 16 19.2 0 -13.2962
204 2 17.6 20.8 1.6 -9.81971
205 2 19.2 19.2 0 -9.73452
206 4 20.8 20.8 1.6 -13.3223
207 3 22.4 19.2 0 -11.2157
208 4 24 20.8 1.6 -13.2329
209 4 25.6 19.2 0 -13.2649
210 3 27.2 20.8 1.6 -11.2194
211 4 28.8 19.2 0 -13.3586
212 2 30.4 20.8 1.6 -9.81945
213 4 32 19.2 0 -13.2577
214 2 33.6 20.8 1.6 -9.76071
215 1 35.2 19.2 0 -11.7374
216 3 36.8 20.8 1.6 -11.0742
217 1 38.4 19.2 0 -11.8119
218 3 40 20.8 1.6 -11.2722
219 4 41.6 19.2 0 -13.2732
220 3 43.2 20.8 1.6 -11.2323
221 4 44.8 19.2 0 -13.2926
222 2 46.4 20.8 1.6 -9.63338
223 4 48 19.2 0 -13.212
224 4 49.6 20.8 1.6 -13.1215
225 1 0 22.4 0 -11.7384
226 3 1.6 24 1.6 -11.1492
227 4 3.2 22.4 0 -13.1387
228 4 4.8 24 1.6 -13.1008
229 2 6.4 22.4 0 -9.77094
230 1 8 24 1.6 -11.6685
231 4 9.6 22.4 0 -13.2611
232 4 11.2 24 1.6 -13.2546
233 3 12.8 22.4 0 -11.1423
234 4 14.4 24 1.6 -13.3453
235 4 16 22.4 0 -13.341
236 4 17.6 24 1.6 -13.2847
237 4 19.2 22.4 0 -13.2011
238 4 20.8 24 1.6 -13.2079
239 4 22.4 22.4 0 -13.1594
240 4 24 24 1.6 -13.1197
241 4 25.6 22.4 0 -13.1798
242 4 27.2 24 1.6 -13.1333
243 4 28.8 22.4 0 -13.229
244 4 30.4 24 1.6 -13.1284
245 4 32 22.4 0 -13.2625
246 2 33.6 24 1.6 -9.767
247 4 35.2 22.4 0 -13.2433
248 4 36.8 24 1.6 -13.1643
249 4 38.4 22.4 0 -13.2788
250 4 40 24 1.6 -13.1152
251 1 41.6 22.4 0 -11.7739
252 2 43.2 24 1.6 -9.65985
253 4 44.8 22.4 0 -13.2352
254 4 46.4 24 1.6 -13.1154
255 4 48 22.4 0 -13.1512
256 3 49.6 24 1.6 -11.1523
257 1 0 25.6 0 -11.7289
259 4 3.2 25.6 0 -13.0847
261 4 6.4 25.6 0 -13.0423
263 2 9.6 25.6 0 -9.63759
265 4 12.8 25.6 0 -13.1245
267 3 16 25.6 0 -11.19
269 3 19.2 25.6 0 -11.1115
271 4 22.4 25.6 0 -13.0829
273 2 25.6 25.6 0 -9.70908
275 1 28.8 25.6 0 -11.7012
277 1 32 25.6 0 -11.739
279 1 35.2 25.6 0 -11.7133
281 4 38.4 25.6 0 -13.238
283 1 41.6 25.6 0 -11.7197
285 1 44.8 25.6 0 -11.748
287 1 48 25.6 0 -11.7721
258 4 1.6 27.2 1.6 -13.1604
289 4 0 28.8 0 -13.0873
260 1 4.8 27.2 1.6 -11.6519
291 3 3.2 28.8 0 -11.2135
262 1 8 27.2 1.6 -11.6725
293 3 6.4 28.8 0 -11.1494
264 1 11.2 27.2 1.6 -11.6933
295 3 9.6 28.8 0 -11.1935
266 1 14.4 27.2 1.6 -11.7205
297 4 12.8 28.8 0 -13.0386
268 1 17.6 27.2 1.6 -11.7874
299 3 16 28.8 0 -11.1632
270 4 20.8 27.2 1.6 -13.2119
301 3 19.2 28.8 0 -11.199
272 4 24 27.2 1.6 -13.1883
303 4 22.4 28.8 0 -13.1184
305 4 25.6 28.8 0 -13.1824
274 3 27.2 27.2 1.6 -11.2023
307 4 28.8 28.8 0 -13.31
276 3 30.4 27.2 1.6 -11.2576
309 4 32 28.8 0 -13.3061
278 3 33.6 27.2 1.6 -11.2224
311 1 35.2 28.8 0 -11.6935
280 2 36.8 27.2 1.6 -9.73348
313 4 38.4 28.8 0 -13.2213
282 3 40 27.2 1.6 -11.1479
315 4 41.6 28.8 0 -13.2798
284 3 43.2 27.2 1.6 -11.2017
317 4 44.8 28.8 0 -13.2969
286 3 46.4 27.2 1.6 -11.1503
319 4 48 28.8 0 -13.2661
288 2 49.6 27.2 1.6 -9.75827
290 4 1.6 30.4 1.6 -13.1367
321 4 0 32 0 -13.0918
292 4 4.8 30.4 1.6 -13.266
323 3 3.2 32 0 -11.2225
294 1 8 30.4 1.6 -11.7904
325 4 6.4 32 0 -13.2392
296 1 11.2 30.4 1.6 -11.7234
327 3 9.6 32 0 -11.1911
298 1 14.4 30.4 1.6 -11.6625
329 2 12.8 32 0 -9.59863
300 1 17.6 30.4 1.6 -11.756
331 3 16 32 0 -11.1244
302 4 20.8 30.4 1.6 -13.204
333 4 19.2 32 0 -13.1966
304 4 24 30.4 1.6 -13.1256
335 2 22.4 32 0 -9.69977
337 1 25.6 32 0 -11.6977
306 4 27.2 30.4 1.6 -13.2531
339 4 28.8 32 0 -13.2104
308 2 30.4 30.4 1.6 -9.7326
341 1 32 32 0 -11.7095
310 3 33.6 30.4 1.6 -11.2325
343 1 35.2 32 0 -11.6886
312 4 36.8 30.4 1.6 -13.0394
345 4 38.4 32 0 -13.1456
314 4 40 30.4 1.6 -13.1493
347 3 41.6 32 0 -11.0953
316 4 43.2 30.4 1.6 -13.1649
349 4 44.8 32 0 -13.1566
318 3 46.4 30.4 1.6 -11.1095
351 4 48 32 0 -13.1934
320 4 49.6 30.4 1.6 -13.0443
322 4 1.6 33.6 1.6 -13.1962
353 4 0 35.2 0 -13.1328
324 4 4.8 33.6 1.6 -13.2939
355 3 3.2 35.2 0 -11.2197
326 4 8 33.6 1.6 -13.2721
357 3 6.4 35.2 0 -11.2257
328 4 11.2 33.6 1.6 -13.176
359 2 9.6 35.2 0 -9.72355
330 1 14.4 33.6 1.6 -11.6186
361 2 12.8 35.2 0 -9.66748
332 4 17.6 33.6 1.6 -13.1391
363 4 16 35.2 0 -13.1216
334 4 20.8 33.6 1.6 -13.09
365 1 19.2 35.2 0 -11.6286
336 3 24 33.6 1.6 -11.0217
367 1 22.4 35.2 0 -11.6179
369 4 25.6 35.2 0 -13.1298
338 3 27.2 33.6 1.6 -11.1896
371 1 28.8 35.2 0 -11.6959
340 4 30.4 33.6 1.6 -13.1695
373 1 32 35.2 0 -11.6228
342 3 33.6 33.6 1.6 -11.112
375 4 35.2 35.2 0 -13.1752
344 4 36.8 33.6 1.6 -13.1403
377 2 38.4 35.2 0 -9.81857
346 4 40 33.6 1.6 -13.2559
379 3 41.6 35.2 0 -11.2147
348 1 43.2 33.6 1.6 -11.5965
381 2 44.8 35.2 0 -9.70771
350 4 46.4 33.6 1.6 -13.137
383 3 48 35.2 0 -11.1096
352 4 49.6 33.6 1.6 -13.1462
354 4 1.6 36.8 1.6 -13.2501
385 4 0 38.4 0 -13.1229
356 4 4.8 36.8 1.6 -13.2542
387 3 3.2 38.4 0 -11.1387
358 1 8 36.8 1.6 -11.6127
389 4 6.4 38.4 0 -13.0651
360 1 11.2 36.8 1.6 -11.5499
391 2 9.6 38.4 0 -9.56196
362 4 14.4 36.8 1.6 -13.121
393 2 12.8 38.4 0 -9.63737
364 3 17.6 36.8 1.6 -11.146
395 4 16 38.4 0 -13.2008
366 2 20.8 36.8 1.6 -9.68355
397 1 19.2 38.4 0 -11.7595
368 4 24 36.8 1.6 -13.0353
399 1 22.4 38.4 0 -11.6697
401 1 25.6 38.4 0 -11.6294
370 4 27.2 36.8 1.6 -13.2372
403 3 28.8 38.4 0 -11.091
372 2 30.4 36.8 1.6 -9.61258
405 4 32 38.4 0 -13.1072
374 4 33.6 36.8 1.6 -13.1114
407 2 35.2 38.4 0 -9.76219
376 4 36.8 36.8 1.6 -13.2729
409 3 38.4 38.4 0 -11.1709
378 4 40 36.8 1.6 -13.3417
411 4 41.6 38.4 0 -13.1705
380 4 43.2 36.8 1.6 -13.1561
413 2 44.8 38.4 0 -9.70758
382 1 46.4 36.8 1.6 -11.6583
415 2 48 38.4 0 -9.67097
384 4 49.6 36.8 1.6 -13.1252
386 4 1.6 40 1.6 -13.2617
417 2 0 41.6 0 -9.66939
388 1 4.8 40 1.6 -11.6019
419 2 3.2 41.6 0 -9.7592
390 1 8 40 1.6 -11.5392
421 2 6.4 41.6 0 -9.6035
392 1 11.2 40 1.6 -11.5306
423 2 9.6 41.6 0 -9.6306
394 4 14.4 40 1.6 -13.1008
425 4 12.8 41.6 0 -13.055
396 2 17.6 40 1.6 -9.72436
427 1 16 41.6 0 -11.6498
398 3 20.8 40 1.6 -11.1529
429 1 19.2 41.6 0 -11.7077
400 2 24 40 1.6 -9.76445
431 1 22.4 41.6 0 -11.7727
433 4 25.6 41.6 0 -13.2035
402 4 27.2 40 1.6 -13.2447
435 3 28.8 41.6 0 -11.2659
404 1 30.4 40 1.6 -11.7445
437 3 32 41.6 0 -11.2023
406 4 33.6 40 1.6 -13.2045
439 3 35.2 41.6 0 -11.2275
408 4 36.8 40 1.6 -13.2943
441 4 38.4 41.6 0 -13.245
410 4 40 40 1.6 -13.1946
443 4 41.6 41.6 0 -13.1945
412 2 43.2 40 1.6 -9.76683
445 4 44.8 41.6 0 -13.295
414 4 46.4 40 1.6 -13.1816
447 4 48 41.6 0 -13.2251
416 4 49.6 40 1.6 -13.1113
418 2 1.6 43.2 1.6 -9.70194
449 4 0 44.8 0 -13.2041
420 4 4.8 43.2 1.6 -13.1191
451 4 3.2 44.8 0 -13.1064
422 1 8 43.2 1.6 -11.6464
453 4 6.4 44.8 0 -13.1354
424 1 11.2 43.2 1.6 -11.5248
455 2 9.6 44.8 0 -9.72751
426 2 14.4 43.2 1.6 -9.63463
457 1 12.8 44.8 0 -11.5243
428 2 17.6 43.2 1.6 -9.51677
459 1 16 44.8 0 -11.6392
430 2 20.8 43.2 1.6 -9.73122
461 1 19.2 44.8 0 -11.6669
432 4 24 43.2 1.6 -13.1889
463 4 22.4 44.8 0 -13.2582
465 4 25.6 44.8 0 -13.2671
434 4 27.2 43.2 1.6 -13.2964
467 3 28.8 44.8 0 -11.2676
436 1 30.4 43.2 1.6 -11.8693
469 3 32 44.8 0 -11.1201
438 1 33.6 43.2 1.6 -11.8105
471 4 35.2 44.8 0 -13.0679
440 4 36.8 43.2 1.6 -13.2139
473 1 38.4 44.8 0 -11.6922
442 3 40 43.2 1.6 -11.1892
475 1 41.6 44.8 0 -11.8104
444 3 43.2 43.2 1.6 -11.2254
477 1 44.8 44.8 0 -11.7688
446 3 46.4 43.2 1.6 -11.1824
479 4 48 44.8 0 -13.2748
448 4 49.6 43.2 1.6 -13.1776
450 2 1.6 46.4 1.6 -9.70097
481 1 0 48 0 -11.6908
452 4 4.8 46.4 1.6 -13.0482
483 1 3.2 48 0 -11.6117
454 2 8 46.4 1.6 -9.78863
485 4 6.4 48 0 -13.1481
456 4 11.2 46.4 1.6 -13.1459
487 4 9.6 48 0 -13.1904
458 3 14.4 46.4 1.6 -11.1048
489 4 12.8 48 0 -13.1489
460 4 17.6 46.4 1.6 -13.0331
491 1 16 48 0 -11.6834
462 2 20.8 46.4 1.6 -9.7026
493 4 19.2 48 0 -13.2071
464 4 24 46.4 1.6 -13.2223
495 4 22.4 48 0 -13.2972
497 4 25.6 48 0 -13.0715
466 4 27.2 46.4 1.6 -13.254
499 2 28.8 48 0 -9.58723
468 4 30.4 46.4 1.6 -13.3023
501 4 32 48 0 -13.0148
470 1 33.6 46.4 1.6 -11.6827
503 4 35.2 48 0 -12.9568
472 4 36.8 46.4 1.6 -13.183
505 4 38.4 48 0 -13.1796
474 3 40 46.4 1.6 -11.1095
507 1 41.6 48 0 -11.5738
476 4 43.2 46.4 1.6 -13.0204
509 1 44.8 48 0 -11.5733
478 3 46.4 46.4 1.6 -11.2001
511 1 48 48 0 -11.7099
480 3 49.6 46.4 1.6 -11.1196
482 3 1.6 49.6 1.6 -11.1222
484 4 4.8 49.6 1.6 -13.0989
486 4 8 49.6 1.6 -13.1693
488 2 11.2 49.6 1.6 -9.72756
490 3 14.4 49.6 1.6 -11.2654
492 4 17.6 49.6 1.6 -13.1197
494 3 20.8 49.6 1.6 -11.1838
496 4 24 49.6 1.6 -13.1489
498 1 27.2 49.6 1.6 -11.547
500 1 30.4 49.6 1.6 -11.6552
502 1 33.6 49.6 1.6 -11.7104
504 1 36.8 49.6 1.6 -11.6864
506 4 40 49.6 1.6 -13.1369
508 4 43.2 49.6 1.6 -13.0188
510 3 46.4 49.6 1.6 -11.0326
512 4 49.6 49.6 1.6 -13.1489
513 1 0 0 3.2 -11.7503
514 4 1.6 1.6 4.8 -13.1061
515 1 3.2 0 3.2 -11.7076
516 2 4.8 1.6 4.8 -9.70272
517 1 6.4 0 3.2 -11.6994
518 3 8 1.6 4.8 -11.0808
519 1 9.6 0 3.2 -11.6768
520 4 11.2 1.6 4.8 -13.0581
521 1 12.8 0 3.2 -11.7679
522 2 14.4 1.6 4.8 -9.65497
523 1 16 0 3.2 -11.7265
524 2 17.6 1.6 4.8 -9.75192
525 4 19.2 0 3.2 -13.2463
526 2 20.8 1.6 4.8 -9.73165
527 4 22.4 0 3.2 -13.2038
528 4 24 1.6 4.8 -13.1913
529 4 25.6 0 3.2 -13.2002
530 4 27.2 1.6 4.8 -13.2616
531 4 28.8 0 3.2 -13.1588
532 4 30.4 1.6 4.8 -13.1961
533 3 32 0 3.2 -11.1883
534 4 33.6 1.6 4.8 -13.2199
535 2 35.2 0 3.2 -9.75892
536 1 36.8 1.6 4.8 -11.6196
537 4 38.4 0 3.2 -13.189
538 3 40 1.6 4.8 -11.126
539 4 41.6 0 3.2 -13.2325
540 3 43.2 1.6 4.8 -11.2175
541 1 44.8 0 3.2 -11.6573
542 4 46.4 1.6 4.8 -13.1228
543 4 48 0 3.2 -13.2567
544 3 49.6 1.6 4.8 -11.2313
545 4 0 3.2 3.2 -13.2701
546 4 1.6 4.8 4.8 -13.1678
547 1 3.2 3.2 3.2 -11.6609
548 4 4.8 4.8 4.8 -13.1004
549 4 6.4 3.2 3.2 -13.1068
550 2 8 4.8 4.8 -9.63864
551 1 9.6 3.2 3.2 -11.6882
552 2 11.2 4.8 4.8 -9.59337
553 1 12.8 3.2 3.2 -11.683
554 2 14.4 4.8 4.8 -9.64875
555 1 16 3.2 3.2 -11.7506
556 3 17.6 4.8 4.8 -11.1524
557 1 19.2 3.2 3.2 -11.8292
558 3 20.8 4.8 4.8 -11.2334
559 1 22.4 3.2 3.2 -11.7291
560 3 24 4.8 4.8 -11.03
561 4 25.6 3.2 3.2 -13.2763
562 3 27.2 4.8 4.8 -11.1862
563 4 28.8 3.2 3.2 -13.2223
564 4 30.4 4.8 4.8 -13.1545
565 4 32 3.2 3.2 -13.1759
566 4 33.6 4.8 4.8 -13.1765
567 4 35.2 3.2 3.2 -13.1498
568 3 36.8 4.8 4.8 -11.1451
569 4 38.4 3.2 3.2 -13.2373
570 2 40 4.8 4.8 -9.72827
571 4 41.6 3.2 3.2 -13.263
572 3 43.2 4.8 4.8 -11.1962
573 1 44.8 3.2 3.2 -11.6573
574 3 46.4 4.8 4.8 -11.1939
575 4 48 3.2 3.2 -13.29
576 3 49.6 4.8 4.8 -11.2237
577 1 0 6.4 3.2 -11.6887
578 4 1.6 8 4.8 -13.1738
579 4 3.2 6.4 3.2 -13.2087
580 2 4.8 8 4.8 -9.7646
581 1 6.4 6.4 3.2 -11.6478
582 3 8 8 4.8 -11.1171
583 1 9.6 6.4 3.2 -11.6745
584 4 11.2 8 4.8 -13.1107
585 1 12.8 6.4 3.2 -11.6555
586 2 14.4 8 4.8 -9.55751
587 1 16 6.4 3.2 -11.6734
588 4 17.6 8 4.8 -13.1559
589 4 19.2 6.4 3.2 -13.3045
590 3 20.8 8 4.8 -11.1492
591 1 22.4 6.4 3.2 -11.7624
592 4 24 8 4.8 -13.1949
593 1 25.6 6.4 3.2 -11.7358
594 2 27.2 8 4.8 -9.63129
595 1 28.8 6.4 3.2 -11.6948
596 3 30.4 8 4.8 -11.0325
597 1 32 6.4 3.2 -11.5965
598 2 33.6 8 4.8 -9.66919
599 4 35.2 6.4 3.2 -13.2309
600 3 36.8 8 4.8 -11.2305
601 4 38.4 6.4 3.2 -13.2207
602 4 40 8 4.8 -13.1961
603 1 41.6 6.4 3.2 -11.6089
604 3 43.2 8 4.8 -11.0822
605 1 44.8 6.4 3.2 -11.7431
606 3 46.4 8 4.8 -11.2042
607 4 48 6.4 3.2 -13.2717
608 4 49.6 8 4.8 -13.1863
609 4 0 9.6 3.2 -13.246
610 4 1.6 11.2 4.8 -13.2611
611 1 3.2 9.6 3.2 -11.7404
612 3 4.8 11.2 4.8 -11.1507
613 1 6.4 9.6 3.2 -11.8279
614 3 8 11.2 4.8 -11.2384
615 1 9.6 9.6 3.2 -11.78
616 3 11.2 11.2 4.8 -11.1643
617 1 12.8 9.6 3.2 -11.7373
618 3 14.4 11.2 4.8 -11.1979
619 1 16 9.6 3.2 -11.7368
620 3 17.6 11.2 4.8 -11.1948
621 4 19.2 9.6 3.2 -13.283
622 4 20.8 11.2 4.8 -13.1646
623 3 22.4 9.6 3.2 -11.0762
624 1 24 11.2 4.8 -11.5181
625 4 25.6 9.6 3.2 -13.2075
626 4 27.2 11.2 4.8 -13.0964
627 1 28.8 9.6 3.2 -11.7076
628 3 30.4 11.2 4.8 -11.1188
629 1 32 9.6 3.2 -11.748
630 3 33.6 11.2 4.8 -11.1225
631 1 35.2 9.6 3.2 -11.7126
632 2 36.8 11.2 4.8 -9.68293
633 4 38.4 9.6 3.2 -13.2361
634 3 40 11.2 4.8 -11.1584
635 4 41.6 9.6 3.2 -13.2622
636 3 43.2 11.2 4.8 -11.2007
637 1 44.8 9.6 3.2 -11.7619
638 3 46.4 11.2 4.8 -11.1656
639 1 48 9.6 3.2 -11.6919
640 3 49.6 11.2 4.8 -11.19
641 1 0 12.8 3.2 -11.7255
642 2 1.6 14.4 4.8 -9.73407
643 1 3.2 12.8 3.2 -11.7483
644 4 4.8 14.4 4.8 -13.2338
645 1 6.4 12.8 3.2 -11.7766
646 2 8 14.4 4.8 -9.76399
647 1 9.6 12.8 3.2 -11.7982
648 3 11.2 14.4 4.8 -11.0718
649 1 12.8 12.8 3.2 -11.7799
650 4 14.4 14.4 4.8 -13.1529
651 1 16 12.8 3.2 -11.7925
652 2 17.6 14.4 4.8 -9.76695
653 4 19.2 12.8 3.2 -13.2889
654 4 20.8 14.4 4.8 -13.1898
655 4 22.4 12.8 3.2 -13.189
656 4 24 14.4 4.8 -13.1864
657 4 25.6 12.8 3.2 -13.1843
658 3 27.2 14.4 4.8 -11.1818
659 1 28.8 12.8 3.2 -11.7267
660 4 30.4 14.4 4.8 -12.9604
661 1 32 12.8 3.2 -11.6266
662 4 33.6 14.4 4.8 -12.8816
663 1 35.2 12.8 3.2 -11.6179
664 4 36.8 14.4 4.8 -13.0584
665 1 38.4 12.8 3.2 -11.6753
666 3 40 14.4 4.8 -11.2023
667 1 41.6 12.8 3.2 -11.7974
668 3 43.2 14.4 4.8 -11.2429
669 1 44.8 12.8 3.2 -11.7464
670 3 46.4 14.4 4.8 -11.2048
671 1 48 12.8 3.2 -11.7068
672 3 49.6 14.4 4.8 -11.236
673 1 0 16 3.2 -11.7721
674 4 1.6 17.6 4.8 -13.1931
675 4 3.2 16 3.2 -13.2191
676 1 4.8 17.6 4.8 -11.5962
677 2 6.4 16 3.2 -9.72036
678 4 8 17.6 4.8 -13.2376
679 4 9.6 16 3.2 -13.2743
680 4 11.2 17.6 4.8 -13.1513
681 1 12.8 16 3.2 -11.6848
682 3 14.4 17.6 4.8 -11.0643
683 4 16 16 3.2 -13.243
684 4 17.6 17.6 4.8 -13.093
685 4 19.2 16 3.2 -13.1319
686 1 20.8 17.6 4.8 -11.604
687 4 22.4 16 3.2 -13.2166
688 4 24 17.6 4.8 -13.1933
689 4 25.6 16 3.2 -13.2226
690 2 27.2 17.6 4.8 -9.73545
691 1 28.8 16 3.2 -11.6975
692 4 30.4 17.6 4.8 -13.1489
693 1 32 16 3.2 -11.5956
694 3 33.6 17.6 4.8 -11.1535
695 4 35.2 16 3.2 -13.2257
696 3 36.8 17.6 4.8 -11.1515
697 4 38.4 16 3.2 -13.3554
698 3 40 17.6 4.8 -11.3112
699 1 41.6 16 3.2 -11.7931
700 3 43.2 17.6 4.8 -11.2023
701 1 44.8 16 3.2 -11.7241
702 3 46.4 17.6 4.8 -11.164
703 1 48 16 3.2 -11.7389
704 3 49.6 17.6 4.8 -11.199
705 4 0 19.2 3.2 -13.2147
706 4 1.6 20.8 4.8 -13.0391
707 4 3.2 19.2 3.2 -13.0361
708 1 4.8 20.8 4.8 -11.5624
709 4 6.4 19.2 3.2 -13.1368
710 4 8 20.8 4.8 -13.2832
711 2 9.6 19.2 3.2 -9.73769
712 4 11.2 20.8 4.8 -13.1754
713 4 12.8 19.2 3.2 -13.1667
714 4 14.4 20.8 4.8 -13.2646
715 4 16 19.2 3.2 -13.1849
716 4 17.6 20.8 4.8 -13.1903
717 4 19.2 19.2 3.2 -13.1184
718 4 20.8 20.8 4.8 -13.3101
719 2 22.4 19.2 3.2 -9.76912
720 4 24 20.8 4.8 -13.2291
721 1 25.6 19.2 3.2 -11.6668
722 2 27.2 20.8 4.8 -9.81601
723 1 28.8 19.2 3.2 -11.7597
724 3 30.4 20.8 4.8 -11.2222
725 4 32 19.2 3.2 -13.2805
726 4 33.6 20.8 4.8 -13.2261
727 1 35.2 19.2 3.2 -11.7292
728 4 36.8 20.8 4.8 -13.1226
729 1 38.4 19.2 3.2 -11.8281
730 3 40 20.8 4.8 -11.1613
731 1 41.6 19.2 3.2 -11.8149
732 3 43.2 20.8 4.8 -11.2408
733 4 44.8 19.2 3.2 -13.2191
734 2 46.4 20.8 4.8 -9.6824
735 1 48 19.2 3.2 -11.6486
736 4 49.6 20.8 4.8 -13.0317
737 4 0 22.4 3.2 -13.1698
738 4 1.6 24 4.8 -13.101
739 1 3.2 22.4 3.2 -11.5795
740 1 4.8 24 4.8 -11.5242
741 3 6.4 22.4 3.2 -11.0207
742 1 8 24 4.8 -11.7353
743 3 9.6 22.4 3.2 -11.2193
744 4 11.2 24 4.8 -13.3077
745 4 12.8 22.4 3.2 -13.2852
746 4 14.4 24 4.8 -13.2745
747 4 16 22.4 3.2 -13.3044
748 1 17.6 24 4.8 -11.7773
749 3 19.2 22.4 3.2 -11.1772
750 1 20.8 24 4.8 -11.7909
751 3 22.4 22.4 3.2 -11.2197
752 1 24 24 4.8 -11.6469
753 4 25.6 22.4 3.2 -13.1164
754 4 27.2 24 4.8 -13.1144
755 4 28.8 22.4 3.2 -13.2531
756 4 30.4 24 4.8 -13.2926
757 4 32 22.4 3.2 -13.2915
758 3 33.6 24 4.8 -11.3087
759 1 35.2 22.4 3.2 -11.656
760 2 36.8 24 4.8 -9.71043
761 4 38.4 22.4 3.2 -13.2175
762 3 40 24 4.8 -11.1582
763 1 41.6 22.4 3.2 -11.7636
764 3 43.2 24 4.8 -11.2403
765 1 44.8 22.4 3.2 -11.7226
766 3 46.4 24 4.8 -11.0342
767 1 48 22.4 3.2 -11.6189
768 2 49.6 24 4.8 -9.72515
769 4 0 25.6 3.2 -13.2647
771 4 3.2 25.6 3.2 -13.0748
773 2 6.4 25.6 3.2 -9.59563
775 2 9.6 25.6 3.2 -9.74485
777 3 12.8 25.6 3.2 -11.1919
779 3 16 25.6 3.2 -11.1542
781 4 19.2 25.6 3.2 -13.1949
783 2 22.4 25.6 3.2 -9.66835
785 4 25.6 25.6 3.2 -13.1628
787 4 28.8 25.6 3.2 -13.154
789 4 32 25.6 3.2 -13.2826
791 4 35.2 25.6 3.2 -13.2256
793 4 38.4 25.6 3.2 -13.2344
795 1 41.6 25.6 3.2 -11.7386
797 1 44.8 25.6 3.2 -11.7277
799 4 48 25.6 3.2 -13.2371
770 2 1.6 27.2 4.8 -9.73875
801 1 0 28.8 3.2 -11.5967
772 4 4.8 27.2 4.8 -13.1653
803 2 3.2 28.8 3.2 -9.70896
774 1 8 27.2 4.8 -11.7553
805 2 6.4 28.8 3.2 -9.78483
776 1 11.2 27.2 4.8 -11.828
807 3 9.6 28.8 3.2 -11.2024
778 1 14.4 27.2 4.8 -11.8259
809 3 12.8 28.8 3.2 -11.036
780 1 17.6 27.2 4.8 -11.7537
811 2 16 28.8 3.2 -9.73575
782 1 20.8 27.2 4.8 -11.7392
813 3 19.2 28.8 3.2 -11.1178
784 1 24 27.2 4.8 -11.7241
815 2 22.4 28.8 3.2 -9.73023
817 3 25.6 28.8 3.2 -11.1344
786 4 27.2 27.2 4.8 -13.3034
819 4 28.8 28.8 3.2 -13.3232
788 4 30.4 27.2 4.8 -13.2601
821 4 32 28.8 3.2 -13.344
790 3 33.6 27.2 4.8 -11.253
823 1 35.2 28.8 3.2 -11.7545
792 4 36.8 27.2 4.8 -13.1659
825 4 38.4 28.8 3.2 -13.1742
794 2 40 27.2 4.8 -9.75284
827 1 41.6 28.8 3.2 -11.7128
796 3 43.2 27.2 4.8 -11.1645
829 1 44.8 28.8 3.2 -11.7332
798 4 46.4 27.2 4.8 -13.2041
831 1 48 28.8 3.2 -11.7297
800 3 49.6 27.2 4.8 -11.1518
802 4 1.6 30.4 4.8 -13.0472
833 4 0 32 3.2 -13.1174
804 4 4.8 30.4 4.8 -13.2182
835 4 3.2 32 3.2 -13.2237
806 4 8 30.4 4.8 -13.2466
837 2 6.4 32 3.2 -9.76562
808 1 11.2 30.4 4.8 -11.7621
839 3 9.6 32 3.2 -11.1479
810 1 14.4 30.4 4.8 -11.7538
841 4 12.8 32 3.2 -13.1106
812 1 17.6 30.4 4.8 -11.7996
843 3 16 32 3.2 -11.0764
814 1 20.8 30.4 4.8 -11.7543
845 2 19.2 32 3.2 -9.70102
816 1 24 30.4 4.8 -11.6429
847 4 22.4 32 3.2 -13.1195
849 1 25.6 32 3.2 -11.6286
818 4 27.2 30.4 4.8 -13.2694
851 4 28.8 32 3.2 -13.2277
820 4 30.4 30.4 4.8 -13.2592
853 4 32 32 3.2 -13.2369
822 3 33.6 30.4 4.8 -11.2223
855 1 35.2 32 3.2 -11.6604
824 3 36.8 30.4 4.8 -11.0651
857 4 38.4 32 3.2 -13.152
826 2 40 30.4 4.8 -9.76267
859 4 41.6 32 3.2 -13.1267
828 3 43.2 30.4 4.8 -11.1564
861 1 44.8 32 3.2 -11.6436
830 3 46.4 30.4 4.8 -11.1898
863 4 48 32 3.2 -13.2614
832 2 49.6 30.4 4.8 -9.69783
834 3 1.6 33.6 4.8 -11.1826
865 4 0 35.2 3.2 -13.2503
836 4 4.8 33.6 4.8 -13.2214
867 4 3.2 35.2 3.2 -13.3306
838 4 8 33.6 4.8 -13.2194
869 3 6.4 35.2 3.2 -11.172
840 4 11.2 33.6 4.8 -13.2143
871 4 9.6 35.2 3.2 -13.1637
842 1 14.4 33.6 4.8 -11.7094
873 2 12.8 35.2 3.2 -9.64162
844 4 17.6 33.6 4.8 -13.2777
875 4 16 35.2 3.2 -13.1977
846 4 20.8 33.6 4.8 -13.1625
877 1 19.2 35.2 3.2 -11.646
848 4 24 33.6 4.8 -13.1619
879 1 22.4 35.2 3.2 -11.6048
881 4 25.6 35.2 3.2 -13.2694
850 3 27.2 33.6 4.8 -11.2048
883 4 28.8 35.2 3.2 -13.1945
852 4 30.4 33.6 4.8 -13.2022
885 2 32 35.2 3.2 -9.70537
854 4 33.6 33.6 4.8 -13.2387
887 4 35.2 35.2 3.2 -13.1467
856 4 36.8 33.6 4.8 -13.1918
889 3 38.4 35.2 3.2 -11.2801
858 4 40 33.6 4.8 -13.2153
891 2 41.6 35.2 3.2 -9.73388
860 4 43.2 33.6 4.8 -13.146
893 4 44.8 35.2 3.2 -13.0923
862 3 46.4 33.6 4.8 -11.2609
895 4 48 35.2 3.2 -13.3074
864 3 49.6 33.6 4.8 -11.3011
866 3 1.6 36.8 4.8 -11.2611
897 4 0 38.4 3.2 -13.279
868 4 4.8 36.8 4.8 -13.2648
899 2 3.2 38.4 3.2 -9.75105
870 2 8 36.8 4.8 -9.79312
901 4 6.4 38.4 3.2 -13.1324
872 4 11.2 36.8 4.8 -13.2517
903 4 9.6 38.4 3.2 -13.0584
874 4 14.4 36.8 4.8 -13.2673
905 4 12.8 38.4 3.2 -13.1469
876 3 17.6 36.8 4.8 -11.2478
907 4 16 38.4 3.2 -13.258
878 3 20.8 36.8 4.8 -11.1418
909 4 19.2 38.4 3.2 -13.3325
880 2 24 36.8 4.8 -9.79148
911 4 22.4 38.4 3.2 -13.2964
913 2 25.6 38.4 3.2 -9.74437
882 2 27.2 36.8 4.8 -9.73719
915 4 28.8 38.4 3.2 -13.1733
884 1 30.4 36.8 4.8 -11.6325
917 4 32 38.4 3.2 -13.0086
886 1 33.6 36.8 4.8 -11.6165
919 4 35.2 38.4 3.2 -13.0727
888 4 36.8 36.8 4.8 -13.2468
921 3 38.4 38.4 3.2 -11.2505
890 4 40 36.8 4.8 -13.3339
923 4 41.6 38.4 3.2 -13.2246
892 4 43.2 36.8 4.8 -13.1761
925 4 44.8 38.4 3.2 -13.2265
894 3 46.4 36.8 4.8 -11.1916
927 4 48 38.4 3.2 -13.2328
896 3 49.6 36.8 4.8 -11.2686
898 3 1.6 40 4.8 -11.1874
929 4 0 41.6 3.2 -13.2027
900 4 4.8 40 4.8 -13.2363
931 4 3.2 41.6 3.2 -13.2476
902 3 8 40 4.8 -11.097
933 2 6.4 41.6 3.2 -9.67062
904 3 11.2 40 4.8 -11.2174
935 4 9.6 41.6 3.2 -13.1246
906 3 14.4 40 4.8 -11.1404
937 4 12.8 41.6 3.2 -13.1139
908 2 17.6 40 4.8 -9.75233
939 1 16 41.6 3.2 -11.6176
910 4 20.8 40 4.8 -13.2711
941 4 19.2 41.6 3.2 -13.135
912 3 24 40 4.8 -11.1666
943 4 22.4 41.6 3.2 -13.2003
945 4 25.6 41.6 3.2 -13.2586
914 4 27.2 40 4.8 -13.2793
947 3 28.8 41.6 3.2 -11.1983
916 1 30.4 40 4.8 -11.6975
949 3 32 41.6 3.2 -11.2034
918 1 33.6 40 4.8 -11.6707
951 3 35.2 41.6 3.2 -11.1527
920 1 36.8 40 4.8 -11.7174
953 4 38.4 41.6 3.2 -13.2061
922 4 40 40 4.8 -13.2664
955 1 41.6 41.6 3.2 -11.669
924 3 43.2 40 4.8 -11.0939
957 4 44.8 41.6 3.2 -13.2337
926 2 46.4 40 4.8 -9.75966
959 4 48 41.6 3.2 -13.1737
928 3 49.6 40 4.8 -11.2322
930 4 1.6 43.2 4.8 -13.1112
961 1 0 44.8 3.2 -11.6543
932 3 4.8 43.2 4.8 -11.0229
963 4 3.2 44.8 3.2 -13.1341
934 4 8 43.2 4.8 -13.2528
965 4 6.4 44.8 3.2 -13.1937
936 4 11.2 43.2 4.8 -13.1554
967 3 9.6 44.8 3.2 -11.0943
938 2 14.4 43.2 4.8 -9.70524
969 4 12.8 44.8 3.2 -13.2056
940 4 17.6 43.2 4.8 -13.0247
971 1 16 44.8 3.2 -11.6401
942 2 20.8 43.2 4.8 -9.64236
973 1 19.2 44.8 3.2 -11.58
944 4 24 43.2 4.8 -13.1994
975 4 22.4 44.8 3.2 -13.1551
977 3 25.6 44.8 3.2 -11.1429
946 1 27.2 43.2 4.8 -11.7567
979 3 28.8 44.8 3.2 -11.3395
948 1 30.4 43.2 4.8 -11.8412
981 3 32 44.8 3.2 -11.277
950 1 33.6 43.2 4.8 -11.828
983 3 35.2 44.8 3.2 -11.1633
952 1 36.8 43.2 4.8 -11.7385
985 4 38.4 44.8 3.2 -13.2418
954 4 40 43.2 4.8 -13.2126
987 4 41.6 44.8 3.2 -13.2153
956 4 43.2 43.2 4.8 -13.1534
989 4 44.8 44.8 3.2 -13.2143
958 4 46.4 43.2 4.8 -13.0723
991 1 48 44.8 3.2 -11.741
960 2 49.6 43.2 4.8 -9.63094
962 2 1.6 46.4 4.8 -9.65709
993 1 0 48 3.2 -11.7385
964 4 4.8 46.4 4.8 -13.0938
995 4 3.2 48 3.2 -13.1805
966 4 8 46.4 4.8 -13.1347
997 2 6.4 48 3.2 -9.6739
968 4 11.2 46.4 4.8 -13.2243
999 4 9.6 48 3.2 -13.2376
970 3 14.4 46.4 4.8 -11.2206
1001 4 12.8 48 3.2 -13.3422
972 2 17.6 46.4 4.8 -9.69806
1003 4 16 48 3.2 -13.2281
974 4 20.8 46.4 4.8 -13.1251
1005 4 19.2 48 3.2 -13.157
976 4 24 46.4 4.8 -13.1518
1007 4 22.4 48 3.2 -13.1439
1009 2 25.6 48 3.2 -9.7341
978 1 27.2 46.4 4.8 -11.8011
1011 3 28.8 48 3.2 -11.1943
980 1 30.4 46.4 4.8 -11.7932
1013 3 32 48 3.2 -11.1625
982 1 33.6 46.4 4.8 -11.7975
1015 3 35.2 48 3.2 -11.1945
984 1 36.8 46.4 4.8 -11.7991
1017 2 38.4 48 3.2 -9.73829
986 4 40 46.4 4.8 -13.2815
1019 1 41.6 48 3.2 -11.5768
988 4 43.2 46.4 4.8 -13.1578
1021 1 44.8 48 3.2 -11.681
990 3 46.4 46.4 4.8 -11.1535
1023 1 48 48 3.2 -11.8105
992 3 49.6 46.4 4.8 -11.162
994 3 1.6 49.6 4.8 -11.1633
996 2 4.8 49.6 4.8 -9.70279
998 2 8 49.6 4.8 -9.69654
1000 3 11.2 49.6 4.8 -11.1493
1002 3 14.4 49.6 4.8 -11.2238
1004 2 17.6 49.6 4.8 -9.73102
1006 4 20.8 49.6 4.8 -13.1239
1008 4 24 49.6 4.8 -13.1134
1010 4 27.2 49.6 4.8 -13.2333
1012 1 30.4 49.6 4.8 -11.7102
1014 4 33.6 49.6 4.8 -13.2725
1016 4 36.8 49.6 4.8 -13.2314
1018 4 40 49.6 4.8 -13.2696
1020 3 43.2 49.6 4.8 -11.1426
1022 3 46.4 49.6 4.8 -11.2325
1024 3 49.6 49.6 4.8 -11.2376
1025 1 0 0 6.4 -11.7343
1026 1 1.6 1.6 8 -11.5152
1027 4 3.2 0 6.4 -13.2163
1028 2 4.8 1.6 8 -9.76665
1029 1 6.4 0 6.4 -11.7656
1030 3 8 1.6 8 -11.1571
1031 1 9.6 0 6.4 -11.7704
1032 3 11.2 1.6 8 -11.1998
1033 4 12.8 0 6.4 -13.2762
1034 3 14.4 1.6 8 -11.2002
1035 1 16 0 6.4 -11.7292
1036 3 17.6 1.6 8 -11.1917
1037 4 19.2 0 6.4 -13.2593
1038 2 20.8 1.6 8 -9.76827
1039 4 22.4 0 6.4 -13.0704
1040 4 24 1.6 8 -13.1808
1041 3 25.6 0 6.4 -11.1753
1042 4 27.2 1.6 8 -13.1857
1043 2 28.8 0 6.4 -9.73445
1044 4 30.4 1.6 8 -13.1167
1045 2 32 0 6.4 -9.75179
1046 4 33.6 1.6 8 -13.2396
1047 2 35.2 0 6.4 -9.72738
1048 1 36.8 1.6 8 -11.6277
1049 2 38.4 0 6.4 -9.70289
1050 1 40 1.6 8 -11.5505
1051 4 41.6 0 6.4 -13.2036
1052 4 43.2 1.6 8 -13.2151
1053 4 44.8 0 6.4 -13.241
1054 4 46.4 1.6 8 -13.1154
1055 1 48 0 6.4 -11.7213
1056 3 49.6 1.6 8 -11.1545
1057 4 0 3.2 6.4 -13.1979
1058 1 1.6 4.8 8 -11.6684
1059 2 3.2 3.2 6.4 -9.64481
1060 4 4.8 4.8 8 -13.1379
1061 1 6.4 3.2 6.4 -11.6598
1062 4 8 4.8 8 -13.1378
1063 1 9.6 3.2 6.4 -11.674
1064 3 11.2 4.8 8 -11.1218
1065 1 12.8 3.2 6.4 -11.7022
1066 3 14.4 4.8 8 -11.0822
1067 1 16 3.2 6.4 -11.7407
1068 2 17.6 4.8 8 -9.72593
1069 4 19.2 3.2 6.4 -13.2686
1070 4 20.8 4.8 8 -13.2749
1071 1 22.4 3.2 6.4 -11.6493
1072 4 24 4.8 8 -13.2314
1073 4 25.6 3.2 6.4 -13.225
1074 2 27.2 4.8 8 -9.67597
1075 4 28.8 3.2 6.4 -13.1952
1076 4 30.4 4.8 8 -13.1304
1077 3 32 3.2 6.4 -11.1572
1078 3 33.6 4.8 8 -11.1659
1079 4 35.2 3.2 6.4 -13.2304
1080 3 36.8 4.8 8 -11.1497
1081 4 38.4 3.2 6.4 -13.1765
1082 4 40 4.8 8 -13.0497
1083 4 41.6 3.2 6.4 -13.2119
1084 2 43.2 4.8 8 -9.69899
1085 4 44.8 3.2 6.4 -13.2463
1086 4 46.4 4.8 8 -13.2301
1087 1 48 3.2 6.4 -11.7171
1088 3 49.6 4.8 8 -11.1781
1089 4 0 6.4 6.4 -13.259
1090 1 1.6 8 8 -11.674
1091 3 3.2 6.4 6.4 -11.105
1092 1 4.8 8 8 -11.6072
1093 4 6.4 6.4 6.4 -13.166
1094 4 8 8 8 -13.2173
1095 4 9.6 6.4 6.4 -13.188
1096 3 11.2 8 8 -11.0641
1097 1 12.8 6.4 6.4 -11.6655
1098 4 14.4 8 8 -13.1104
1099 1 16 6.4 6.4 -11.6421
1100 2 17.6 8 8 -9.70092
1101 4 19.2 6.4 6.4 -13.2692
1102 3 20.8 8 8 -11.1812
1103 1 22.4 6.4 6.4 -11.7145