ITEM: TIMESTEP
0
ITEM: NUMBER OF ATOMS
8192
ITEM: BOX BOUNDS pp pp pp
0.0000000000000000e+00 5.1200000000000003e+01
0.0000000000000000e+00 5.1200000000000003e+01
0.0000000000000000e+00 5.1200000000000003e+01
ITEM: ATOMS id type x y z c_eng
1 1 0 0 0 -11.7681
2 4 1.6 1.6 1.6 -13.0289
3 1 3.2 0 0 -11.6991
4 2 4.8 1.6 1.6 -9.68335
5 1 6.4 0 0 -11.7247
6 3 8 1.6 1.6 -11.1621
7 1 9.6 0 0 -11.7764
8 3 11.2 1.6 1.6 -11.2368
9 4 12.8 0 0 -13.2802
10 3 14.4 1.6 1.6 -11.2406
11 1 16 0 0 -11.7615
12 3 17.6 1.6 1.6 -11.237
13 1 19.2 0 0 -11.7065
14 3 20.8 1.6 1.6 -11.1622
15 1 22.4 0 0 -11.7033
16 2 24 1.6 1.6 -9.749
17 4 25.6 0 0 -13.2328
18 2 27.2 1.6 1.6 -9.7077
19 4 28.8 0 0 -13.1471
20 4 30.4 1.6 1.6 -13.0734
21 3 32 0 0 -10.9873
22 4 33.6 1.6 1.6 -13.1343
23 2 35.2 0 0 -9.69853
24 4 36.8 1.6 1.6 -13.1029
25 4 38.4 0 0 -13.1776
26 3 40 1.6 1.6 -11.1806
27 4 41.6 0 0 -13.1981
28 3 43.2 1.6 1.6 -11.2377
29 1 44.8 0 0 -11.693
30 3 46.4 1.6 1.6 -11.2419
31 1 48 0 0 -11.7516
32 3 49.6 1.6 1.6 -11.158
33 1 0 3.2 0 -11.6778
34 3 1.6 4.8 1.6 -11.1626
35 1 3.2 3.2 0 -11.7667
36 3 4.8 4.8 1.6 -11.2402
37 1 6.4 3.2 0 -11.7708
38 3 8 4.8 1.6 -11.2029
39 4 9.6 3.2 0 -13.2576
40 4 11.2 4.8 1.6 -13.1986
41 1 12.8 3.2 0 -11.7397
42 3 14.4 4.8 1.6 -11.1552
43 1 16 3.2 0 -11.7415
44 3 17.6 4.8 1.6 -11.1625
45 4 19.2 3.2 0 -13.2143
46 2 20.8 4.8 1.6 -9.75007
47 1 22.4 3.2 0 -11.7244
48 3 24 4.8 1.6 -11.1561
49 1 25.6 3.2 0 -11.6832
50 3 27.2 4.8 1.6 -11.2211
51 4 28.8 3.2 0 -13.1803
52 4 30.4 4.8 1.6 -13.3488
53 4 32 3.2 0 -13.214
54 3 33.6 4.8 1.6 -11.2311
55 4 35.2 3.2 0 -13.1057
56 4 36.8 4.8 1.6 -13.1726
57 2 38.4 3.2 0 -9.72689
58 4 40 4.8 1.6 -13.2419
59 4 41.6 3.2 0 -13.3417
60 3 43.2 4.8 1.6 -11.2031
61 1 44.8 3.2 0 -11.8023
62 3 46.4 4.8 1.6 -11.1582
63 4 48 3.2 0 -13.2125
64 2 49.6 4.8 1.6 -9.68839
65 1 0 6.4 0 -11.7259
66 3 1.6 8 1.6 -11.1229
67 1 3.2 6.4 0 -11.7801
68 3 4.8 8 1.6 -11.2023
69 1 6.4 6.4 0 -11.798
70 3 8 8 1.6 -11.2392
71 1 9.6 6.4 0 -11.7853
72 3 11.2 8 1.6 -11.1589
73 4 12.8 6.4 0 -13.2958
74 3 14.4 8 1.6 -11.34
75 4 16 6.4 0 -13.2385
76 3 17.6 8 1.6 -11.2404
77 1 19.2 6.4 0 -11.6813
78 3 20.8 8 1.6 -11.2283
79 1 22.4 6.4 0 -11.7008
80 3 24 8 1.6 -11.1863
81 1 25.6 6.4 0 -11.779
82 4 27.2 8 1.6 -13.2965
83 3 28.8 6.4 0 -11.2636
84 4 30.4 8 1.6 -13.2156
85 3 32 6.4 0 -11.2618
86 2 33.6 8 1.6 -9.80349
87 2 35.2 6.4 0 -9.80329
88 2 36.8 8 1.6 -9.81964
89 4 38.4 6.4 0 -13.3008
90 3 40 8 1.6 -11.2349
91 1 41.6 6.4 0 -11.7837
92 3 43.2 8 1.6 -11.2039
93 1 44.8 6.4 0 -11.8171
94 3 46.4 8 1.6 -11.2037
95 4 48 6.4 0 -13.2203
96 4 49.6 8 1.6 -13.1109
97 1 0 9.6 0 -11.697
98 4 1.6 11.2 1.6 -13.1511
99 1 3.2 9.6 0 -11.7345
100 3 4.8 11.2 1.6 -11.1988
101 4 6.4 9.6 0 -13.3146
102 3 8 11.2 1.6 -11.3087
103 1 9.6 9.6 0 -11.8556
104 3 11.2 11.2 1.6 -11.2026
105 1 12.8 9.6 0 -11.8554
106 3 14.4 11.2 1.6 -11.242
107 1 16 9.6 0 -11.8316
108 3 17.6 11.2 1.6 -11.2422
109 4 19.2 9.6 0 -13.2619
110 2 20.8 11.2 1.6 -9.70886
111 4 22.4 9.6 0 -13.1631
112 4 24 11.2 1.6 -13.2401
113 1 25.6 9.6 0 -11.743
114 3 27.2 11.2 1.6 -11.1345
115 4 28.8 9.6 0 -13.3467
116 2 30.4 11.2 1.6 -9.73204
117 4 32 9.6 0 -13.1847
118 2 33.6 11.2 1.6 -9.66597
119 4 35.2 9.6 0 -13.2686
120 3 36.8 11.2 1.6 -11.1991
121 4 38.4 9.6 0 -13.3017
122 3 40 11.2 1.6 -11.2364
123 1 41.6 9.6 0 -11.8413
124 3 43.2 11.2 1.6 -11.3073
125 1 44.8 9.6 0 -11.8254
126 3 46.4 11.2 1.6 -11.1942
127 1 48 9.6 0 -11.749
128 2 49.6 11.2 1.6 -9.65357
129 1 0 12.8 0 -11.7521
130 3 1.6 14.4 1.6 -11.2034
131 1 3.2 12.8 0 -11.78
132 3 4.8 14.4 1.6 -11.1648
133 1 6.4 12.8 0 -11.8557
134 3 8 14.4 1.6 -11.2764
135 1 9.6 12.8 0 -11.7934
136 3 11.2 14.4 1.6 -11.1994
137 1 12.8 12.8 0 -11.7802
138 3 14.4 14.4 1.6 -11.1659
139 1 16 12.8 0 -11.7974
140 3 17.6 14.4 1.6 -11.1257
141 1 19.2 12.8 0 -11.6645
142 3 20.8 14.4 1.6 -11.2262
143 4 22.4 12.8 0 -13.1759
144 3 24 14.4 1.6 -11.1352
145 4 25.6 12.8 0 -13.2434
146 4 27.2 14.4 1.6 -13.1966
147 4 28.8 12.8 0 -13.2195
148 3 30.4 14.4 1.6 -11.0627
149 4 32 12.8 0 -13.2012
150 4 33.6 14.4 1.6 -13.0756
151 4 35.2 12.8 0 -13.2097
152 3 36.8 14.4 1.6 -11.199
153 1 38.4 12.8 0 -11.7258
154 3 40 14.4 1.6 -11.2353
155 1 41.6 12.8 0 -11.7549
156 2 43.2 14.4 1.6 -9.79502
157 4 44.8 12.8 0 -13.3526
158 3 46.4 14.4 1.6 -11.3068
159 1 48 12.8 0 -11.7935
160 3 49.6 14.4 1.6 -11.2405
161 1 0 16 0 -11.7466
162 3 1.6 17.6 1.6 -11.0358
163 1 3.2 16 0 -11.6868
164 4 4.8 17.6 1.6 -13.1049
165 1 6.4 16 0 -11.7662
166 3 8 17.6 1.6 -11.2993
167 1 9.6 16 0 -11.8102
168 3 11.2 17.6 1.6 -11.2672
169 1 12.8 16 0 -11.7094
170 4 14.4 17.6 1.6 -13.1503
171 1 16 16 0 -11.6478
172 3 17.6 17.6 1.6 -11.1552
173 4 19.2 16 0 -13.1879
174 4 20.8 17.6 1.6 -13.2504
175 4 22.4 16 0 -13.3258
176 4 24 17.6 1.6 -13.2553
177 1 25.6 16 0 -11.7188
178 3 27.2 17.6 1.6 -11.1092
179 1 28.8 16 0 -11.6667
180 4 30.4 17.6 1.6 -13.2039
181 4 32 16 0 -13.049
182 2 33.6 17.6 1.6 -9.69346
183 4 35.2 16 0 -13.1962
184 3 36.8 17.6 1.6 -11.2695
185 4 38.4 16 0 -13.2973
186 3 40 17.6 1.6 -11.1495
187 4 41.6 16 0 -13.2011
188 3 43.2 17.6 1.6 -11.237
189 4 44.8 16 0 -13.3279
190 3 46.4 17.6 1.6 -11.3091
191 1 48 16 0 -11.8257
192 3 49.6 17.6 1.6 -11.1226
193 1 0 19.2 0 -11.7034
194 3 1.6 20.8 1.6 -11.0738
195 1 3.2 19.2 0 -11.7165
196 3 4.8 20.8 1.6 -11.2637
197 4 6.4 19.2 0 -13.2976
198 3 8 20.8 1.6 -11.2741
199 4 9.6 19.2 0 -13.3457
200 4 11.2 20.8 1.6 -13.3303
201 3 12.8 19.2 0 -11.186
202 4 14.4 20.8 1.6 -13.1411
203 4 16 19.2 0 -13.199
204 3 17.6 20.8 1.6 -11.2805
205 4 19.2 19.2 0 -13.326
206 4 20.8 20.8 1.6 -13.1763
207 4 22.4 19.2 0 -13.2223
208 2 24 20.8 1.6 -9.64518
209 4 25.6 19.2 0 -13.237
210 2 27.2 20.8 1.6 -9.79574
211 4 28.8 19.2 0 -13.2273
212 3 30.4 20.8 1.6 -11.1822
213 4 32 19.2 0 -13.2373
214 3 33.6 20.8 1.6 -11.2695
215 4 35.2 19.2 0 -13.2567
216 3 36.8 20.8 1.6 -11.1919
217 4 38.4 19.2 0 -13.277
218 4 40 20.8 1.6 -13.197
219 1 41.6 19.2 0 -11.7009
220 3 43.2 20.8 1.6 -11.0764
221 4 44.8 19.2 0 -13.241
222 3 46.4 20.8 1.6 -11.1201
223 1 48 19.2 0 -11.7354
224 4 49.6 20.8 1.6 -13.0596
225 1 0 22.4 0 -11.6601
226 4 1.6 24 1.6 -13.0389
227 4 3.2 22.4 0 -13.1551
228 4 4.8 24 1.6 -13.1304
229 4 6.4 22.4 0 -13.2945
230 4 8 24 1.6 -13.215
231 4 9.6 22.4 0 -13.2245
232 4 11.2 24 1.6 -13.2534
233 3 12.8 22.4 0 -11.2102
234 4 14.4 24 1.6 -13.2606
235 4 16 22.4 0 -13.2459
236 4 17.6 24 1.6 -13.2666
237 3 19.2 22.4 0 -11.2341
238 4 20.8 24 1.6 -13.1093
239 4 22.4 22.4 0 -13.0944
240 1 24 24 1.6 -11.5296
241 4 25.6 22.4 0 -13.1028
242 2 27.2 24 1.6 -9.73583
243 4 28.8 22.4 0 -13.2162
244 2 30.4 24 1.6 -9.76508
245 4 32 22.4 0 -13.275
246 3 33.6 24 1.6 -11.1609
247 4 35.2 22.4 0 -13.2771
248 2 36.8 24 1.6 -9.71191
249 1 38.4 22.4 0 -11.7947
250 3 40 24 1.6 -11.1201
251 4 41.6 22.4 0 -13.2165
252 4 43.2 24 1.6 -13.1566
253 1 44.8 22.4 0 -11.71
254 3 46.4 24 1.6 -11.1996
255 1 48 22.4 0 -11.7204
256 2 49.6 24 1.6 -9.66515
257 4 0 25.6 0 -13.1275
259 1 3.2 25.6 0 -11.5779
261 2 6.4 25.6 0 -9.7052
263 4 9.6 25.6 0 -13.2464
265 3 12.8 25.6 0 -11.2938
267 2 16 25.6 0 -9.69853
269 2 19.2 25.6 0 -9.76703
271 2 22.4 25.6 0 -9.67236
273 3 25.6 25.6 0 -11.1812
275 4 28.8 25.6 0 -13.2672
277 1 32 25.6 0 -11.741
279 1 35.2 25.6 0 -11.7731
281 1 38.4 25.6 0 -11.8119
283 1 41.6 25.6 0 -11.7782
285 4 44.8 25.6 0 -13.2767
287 4 48 25.6 0 -13.2656
258 2 1.6 27.2 1.6 -9.67362
289 4 0 28.8 0 -13.1605
260 3 4.8 27.2 1.6 -11.1711
291 4 3.2 28.8 0 -13.1581
262 4 8 27.2 1.6 -13.2615
293 4 6.4 28.8 0 -13.2236
264 4 11.2 27.2 1.6 -13.3203
295 3 9.6 28.8 0 -11.1719
266 1 14.4 27.2 1.6 -11.7582
297 3 12.8 28.8 0 -11.2893
268 4 17.6 27.2 1.6 -13.2156
299 4 16 28.8 0 -13.162
270 4 20.8 27.2 1.6 -13.2375
301 3 19.2 28.8 0 -11.0994
272 1 24 27.2 1.6 -11.6874
303 4 22.4 28.8 0 -13.3513
305 3 25.6 28.8 0 -11.0966
274 4 27.2 27.2 1.6 -13.1545
307 4 28.8 28.8 0 -13.2577
276 3 30.4 27.2 1.6 -11.2382
309 1 32 28.8 0 -11.7705
278 3 33.6 27.2 1.6 -11.2054
311 1 35.2 28.8 0 -11.7662
280 3 36.8 27.2 1.6 -11.1261
313 1 38.4 28.8 0 -11.8105
282 3 40 27.2 1.6 -11.2416
315 1 41.6 28.8 0 -11.7967
284 3 43.2 27.2 1.6 -11.1617
317 1 44.8 28.8 0 -11.7397
286 3 46.4 27.2 1.6 -11.1575
319 4 48 28.8 0 -13.2148
288 4 49.6 27.2 1.6 -13.125
290 4 1.6 30.4 1.6 -13.1408
321 4 0 32 0 -13.1454
292 4 4.8 30.4 1.6 -13.1818
323 2 3.2 32 0 -9.7911
294 4 8 30.4 1.6 -13.3019
325 3 6.4 32 0 -11.2094
296 4 11.2 30.4 1.6 -13.2715
327 2 9.6 32 0 -9.73842
298 4 14.4 30.4 1.6 -13.2354
329 2 12.8 32 0 -9.81671
300 4 17.6 30.4 1.6 -13.204
331 4 16 32 0 -13.1728
302 4 20.8 30.4 1.6 -13.2631
333 3 19.2 32 0 -11.1749
304 4 24 30.4 1.6 -13.275
335 3 22.4 32 0 -11.1281
337 4 25.6 32 0 -13.3056
306 1 27.2 30.4 1.6 -11.6165
339 4 28.8 32 0 -13.1709
308 3 30.4 30.4 1.6 -11.0333
341 1 32 32 0 -11.7081
310 2 33.6 30.4 1.6 -9.71928
343 4 35.2 32 0 -13.3251
312 4 36.8 30.4 1.6 -13.1973
345 4 38.4 32 0 -13.3237
314 3 40 30.4 1.6 -11.1174
347 1 41.6 32 0 -11.7708
316 3 43.2 30.4 1.6 -11.1623
349 4 44.8 32 0 -13.1847
318 2 46.4 30.4 1.6 -9.81161
351 4 48 32 0 -13.2684
320 3 49.6 30.4 1.6 -11.1006
322 4 1.6 33.6 1.6 -13.1787
353 4 0 35.2 0 -13.2227
324 4 4.8 33.6 1.6 -13.2997
355 3 3.2 35.2 0 -11.1555
326 2 8 33.6 1.6 -9.62073
357 4 6.4 35.2 0 -13.1942
328 4 11.2 33.6 1.6 -13.1858
359 1 9.6 35.2 0 -11.6266
330 2 14.4 33.6 1.6 -9.70079
361 4 12.8 35.2 0 -13.2651
332 4 17.6 33.6 1.6 -13.1883
363 4 16 35.2 0 -13.1907
334 4 20.8 33.6 1.6 -13.1396
365 4 19.2 35.2 0 -13.1952
336 4 24 33.6 1.6 -13.201
367 4 22.4 35.2 0 -13.1841
369 4 25.6 35.2 0 -13.2331
338 4 27.2 33.6 1.6 -13.2296
371 4 28.8 35.2 0 -13.2679
340 2 30.4 33.6 1.6 -9.76197
373 4 32 35.2 0 -13.2584
342 3 33.6 33.6 1.6 -11.2528
375 4 35.2 35.2 0 -13.3964
344 2 36.8 33.6 1.6 -9.79382
377 4 38.4 35.2 0 -13.2857
346 4 40 33.6 1.6 -13.2266
379 4 41.6 35.2 0 -13.3031
348 4 43.2 33.6 1.6 -13.2216
381 1 44.8 35.2 0 -11.7254
350 3 46.4 33.6 1.6 -11.0251
383 4 48 35.2 0 -13.2437
352 4 49.6 33.6 1.6 -13.2065
354 2 1.6 36.8 1.6 -9.81686
385 4 0 38.4 0 -13.2439
356 2 4.8 36.8 1.6 -9.76138
387 4 3.2 38.4 0 -13.229
358 4 8 36.8 1.6 -13.1525
389 4 6.4 38.4 0 -13.2002
360 3 11.2 36.8 1.6 -11.1477
391 4 9.6 38.4 0 -13.2947
362 4 14.4 36.8 1.6 -13.1091
393 4 12.8 38.4 0 -13.3219
364 2 17.6 36.8 1.6 -9.60118
395 1 16 38.4 0 -11.64
366 2 20.8 36.8 1.6 -9.75235
397 4 19.2 38.4 0 -13.1815
368 3 24 36.8 1.6 -11.1077
399 1 22.4 38.4 0 -11.6939
401 1 25.6 38.4 0 -11.6899
370 3 27.2 36.8 1.6 -11.1768
403 4 28.8 38.4 0 -13.1651
372 4 30.4 36.8 1.6 -13.164
405 1 32 38.4 0 -11.6679
374 3 33.6 36.8 1.6 -11.2048
407 4 35.2 38.4 0 -13.2466
376 4 36.8 36.8 1.6 -13.2173
409 4 38.4 38.4 0 -13.1909
378 4 40 36.8 1.6 -13.2706
411 4 41.6 38.4 0 -13.3154
380 3 43.2 36.8 1.6 -11.2727
413 4 44.8 38.4 0 -13.2739
382 3 46.4 36.8 1.6 -11.2357
415 1 48 38.4 0 -11.7666
384 3 49.6 36.8 1.6 -11.1928
386 3 1.6 40 1.6 -11.1969
417 1 0 41.6 0 -11.7387
388 4 4.8 40 1.6 -13.2461
419 1 3.2 41.6 0 -11.7272
390 3 8 40 1.6 -11.1454
421 2 6.4 41.6 0 -9.69597
392 3 11.2 40 1.6 -11.1856
423 1 9.6 41.6 0 -11.7077
394 2 14.4 40 1.6 -9.68766
425 1 12.8 41.6 0 -11.7837
396 4 17.6 40 1.6 -13.1156
427 4 16 41.6 0 -13.2479
398 3 20.8 40 1.6 -11.0719
429 1 19.2 41.6 0 -11.815
400 4 24 40 1.6 -13.131
431 1 22.4 41.6 0 -11.7249
433 4 25.6 41.6 0 -13.2372
402 4 27.2 40 1.6 -13.1849
435 4 28.8 41.6 0 -13.2689
404 4 30.4 40 1.6 -13.074
437 3 32 41.6 0 -11.0855
406 1 33.6 40 1.6 -11.6731
439 4 35.2 41.6 0 -13.1971
408 1 36.8 40 1.6 -11.6449
441 3 38.4 41.6 0 -11.1334
410 4 40 40 1.6 -13.209
443 4 41.6 41.6 0 -13.205
412 4 43.2 40 1.6 -13.2094
445 4 44.8 41.6 0 -13.1822
414 4 46.4 40 1.6 -13.2087
447 1 48 41.6 0 -11.7188
416 3 49.6 40 1.6 -11.1158
418 3 1.6 43.2 1.6 -11.1989
449 1 0 44.8 0 -11.6807
420 2 4.8 43.2 1.6 -9.67067
451 4 3.2 44.8 0 -13.2457
422 4 8 43.2 1.6 -13.1206
453 4 6.4 44.8 0 -13.2389
424 4 11.2 43.2 1.6 -13.0638
455 1 9.6 44.8 0 -11.6619
426 3 14.4 43.2 1.6 -11.1607
457 1 12.8 44.8 0 -11.7504
428 3 17.6 43.2 1.6 -11.1566
459 1 16 44.8 0 -11.7675
430 3 20.8 43.2 1.6 -11.3069
461 4 19.2 44.8 0 -13.2152
432 3 24 43.2 1.6 -11.1028
463 1 22.4 44.8 0 -11.7477
465 4 25.6 44.8 0 -13.2822
434 4 27.2 43.2 1.6 -13.2532
467 2 28.8 44.8 0 -9.72899
436 4 30.4 43.2 1.6 -13.2437
469 4 32 44.8 0 -13.2124
438 1 33.6 43.2 1.6 -11.7226
471 2 35.2 44.8 0 -9.69941
440 1 36.8 43.2 1.6 -11.7205
473 4 38.4 44.8 0 -13.2283
442 1 40 43.2 1.6 -11.708
475 4 41.6 44.8 0 -13.1761
444 3 43.2 43.2 1.6 -11.096
477 1 44.8 44.8 0 -11.6498
446 2 46.4 43.2 1.6 -9.7624
479 1 48 44.8 0 -11.5976
448 2 49.6 43.2 1.6 -9.69428
450 4 1.6 46.4 1.6 -13.1153
481 4 0 48 0 -13.22
452 2 4.8 46.4 1.6 -9.76591
483 4 3.2 48 0 -13.2635
454 4 8 46.4 1.6 -13.1239
485 4 6.4 48 0 -13.2424
456 3 11.2 46.4 1.6 -11.1234
487 1 9.6 48 0 -11.7394
458 3 14.4 46.4 1.6 -11.1613
489 1 12.8 48 0 -11.7586
460 2 17.6 46.4 1.6 -9.66727
491 4 16 48 0 -13.1519
462 2 20.8 46.4 1.6 -9.65283
493 1 19.2 48 0 -11.6052
464 2 24 46.4 1.6 -9.75792
495 1 22.4 48 0 -11.6384
497 4 25.6 48 0 -13.2267
466 4 27.2 46.4 1.6 -13.1033
499 4 28.8 48 0 -13.0945
468 4 30.4 46.4 1.6 -13.2145
501 3 32 48 0 -11.079
470 1 33.6 46.4 1.6 -11.721
503 3 35.2 48 0 -11.1524
472 1 36.8 46.4 1.6 -11.7365
505 3 38.4 48 0 -11.177
474 4 40 46.4 1.6 -13.2395
507 4 41.6 48 0 -13.2982
476 3 43.2 46.4 1.6 -11.2135
509 4 44.8 48 0 -13.2408
478 4 46.4 46.4 1.6 -13.0316
511 4 48 48 0 -13.1636
480 4 49.6 46.4 1.6 -13.0354
482 2 1.6 49.6 1.6 -9.66596
484 2 4.8 49.6 1.6 -9.71878
486 3 8 49.6 1.6 -11.0802
488 3 11.2 49.6 1.6 -11.2028
490 4 14.4 49.6 1.6 -13.2017
492 2 17.6 49.6 1.6 -9.69561
494 2 20.8 49.6 1.6 -9.58043
496 2 24 49.6 1.6 -9.69175
498 2 27.2 49.6 1.6 -9.67648
500 1 30.4 49.6 1.6 -11.658
502 1 33.6 49.6 1.6 -11.6858
504 4 36.8 49.6 1.6 -13.1964
506 4 40 49.6 1.6 -13.2253
508 2 43.2 49.6 1.6 -9.75973
510 3 46.4 49.6 1.6 -11.1189
512 3 49.6 49.6 1.6 -11.1547
513 4 0 0 3.2 -13.1518
514 4 1.6 1.6 4.8 -13.1272
515 1 3.2 0 3.2 -11.6498
516 3 4.8 1.6 4.8 -11.1631
517 1 6.4 0 3.2 -11.7527
518 3 8 1.6 4.8 -11.2039
519 1 9.6 0 3.2 -11.8122
520 3 11.2 1.6 4.8 -11.2426
521 1 12.8 0 3.2 -11.8151
522 3 14.4 1.6 4.8 -11.2718
523 4 16 0 3.2 -13.3033
524 3 17.6 1.6 4.8 -11.1972
525 1 19.2 0 3.2 -11.7679
526 3 20.8 1.6 4.8 -11.2786
527 1 22.4 0 3.2 -11.7275
528 3 24 1.6 4.8 -11.1125
529 4 25.6 0 3.2 -13.1289
530 4 27.2 1.6 4.8 -13.1334
531 4 28.8 0 3.2 -13.0197
532 4 30.4 1.6 4.8 -13.1791
533 4 32 0 3.2 -13.1746
534 2 33.6 1.6 4.8 -9.76367
535 4 35.2 0 3.2 -13.0224
536 2 36.8 1.6 4.8 -9.73809
537 4 38.4 0 3.2 -13.2307
538 3 40 1.6 4.8 -11.1889
539 1 41.6 0 3.2 -11.693
540 3 43.2 1.6 4.8 -11.2383
541 1 44.8 0 3.2 -11.7354
542 3 46.4 1.6 4.8 -11.1648
543 1 48 0 3.2 -11.7637
544 3 49.6 1.6 4.8 -11.199
545 1 0 3.2 3.2 -11.7414
546 3 1.6 4.8 4.8 -11.1969
547 4 3.2 3.2 3.2 -13.2157
548 3 4.8 4.8 4.8 -11.2395
549 1 6.4 3.2 3.2 -11.8282
550 3 8 4.8 4.8 -11.2048
551 1 9.6 3.2 3.2 -11.7979
552 3 11.2 4.8 4.8 -11.0803
553 1 12.8 3.2 3.2 -11.7729
554 2 14.4 4.8 4.8 -9.68058
555 1 16 3.2 3.2 -11.7938
556 2 17.6 4.8 4.8 -9.67724
557 1 19.2 3.2 3.2 -11.7998
558 3 20.8 4.8 4.8 -11.1977
559 1 22.4 3.2 3.2 -11.7746
560 2 24 4.8 4.8 -9.78897
561 1 25.6 3.2 3.2 -11.7632
562 3 27.2 4.8 4.8 -11.288
563 4 28.8 3.2 3.2 -13.2226
564 3 30.4 4.8 4.8 -11.2156
565 4 32 3.2 3.2 -13.221
566 3 33.6 4.8 4.8 -11.2925
567 1 35.2 3.2 3.2 -11.6696
568 2 36.8 4.8 4.8 -9.79502
569 4 38.4 3.2 3.2 -13.2242
570 2 40 4.8 4.8 -9.75727
571 1 41.6 3.2 3.2 -11.7824
572 3 43.2 4.8 4.8 -11.1651
573 1 44.8 3.2 3.2 -11.7978
574 4 46.4 4.8 4.8 -13.063
575 1 48 3.2 3.2 -11.7685
576 3 49.6 4.8 4.8 -11.1549
577 1 0 6.4 3.2 -11.7764
578 3 1.6 8 4.8 -11.2381
579 1 3.2 6.4 3.2 -11.8556
580 3 4.8 8 4.8 -11.2042
581 1 6.4 6.4 3.2 -11.8122
582 2 8 8 4.8 -9.67722
583 1 9.6 6.4 3.2 -11.7117
584 4 11.2 8 4.8 -13.0076
585 4 12.8 6.4 3.2 -13.2642
586 3 14.4 8 4.8 -11.164
587 1 16 6.4 3.2 -11.8096
588 3 17.6 8 4.8 -11.1654
589 1 19.2 6.4 3.2 -11.7994
590 3 20.8 8 4.8 -11.1512
591 4 22.4 6.4 3.2 -13.3331
592 4 24 8 4.8 -13.2376
593 4 25.6 6.4 3.2 -13.2684
594 4 27.2 8 4.8 -13.1225
595 4 28.8 6.4 3.2 -13.317
596 2 30.4 8 4.8 -9.6617
597 4 32 6.4 3.2 -13.317
598 2 33.6 8 4.8 -9.74704
599 4 35.2 6.4 3.2 -13.3196
600 3 36.8 8 4.8 -11.2664
601 4 38.4 6.4 3.2 -13.2623
602 3 40 8 4.8 -11.1154
603 1 41.6 6.4 3.2 -11.766
604 3 43.2 8 4.8 -11.1662
605 1 44.8 6.4 3.2 -11.7802
606 3 46.4 8 4.8 -11.087
607 1 48 6.4 3.2 -11.7057
608 3 49.6 8 4.8 -11.164
609 4 0 9.6 3.2 -13.2512
610 3 1.6 11.2 4.8 -11.1974
611 1 3.2 9.6 3.2 -11.7977
612 3 4.8 11.2 4.8 -11.3086
613 1 6.4 9.6 3.2 -11.8259
614 3 8 11.2 4.8 -11.1962
615 1 9.6 9.6 3.2 -11.6961
616 4 11.2 11.2 4.8 -13.0547
617 1 12.8 9.6 3.2 -11.7275
618 3 14.4 11.2 4.8 -11.1653
619 1 16 9.6 3.2 -11.8414
620 3 17.6 11.2 4.8 -11.0801
621 1 19.2 9.6 3.2 -11.7808
622 4 20.8 11.2 4.8 -13.2
623 4 22.4 9.6 3.2 -13.2674
624 2 24 11.2 4.8 -9.60498
625 4 25.6 9.6 3.2 -13.1772
626 4 27.2 11.2 4.8 -13.0788
627 4 28.8 9.6 3.2 -13.0795
628 4 30.4 11.2 4.8 -13.0289
629 1 32 9.6 3.2 -11.5903
630 2 33.6 11.2 4.8 -9.58018
631 1 35.2 9.6 3.2 -11.7258
632 3 36.8 11.2 4.8 -11.1645
633 1 38.4 9.6 3.2 -11.7797
634 4 40 11.2 4.8 -13.1935
635 1 41.6 9.6 3.2 -11.7975
636 3 43.2 11.2 4.8 -11.1549
637 1 44.8 9.6 3.2 -11.7977
638 4 46.4 11.2 4.8 -13.1915
639 1 48 9.6 3.2 -11.7057
640 3 49.6 11.2 4.8 -11.1119
641 4 0 12.8 3.2 -13.3087
642 3 1.6 14.4 4.8 -11.2341
643 1 3.2 12.8 3.2 -11.8108
644 3 4.8 14.4 4.8 -11.1985
645 1 6.4 12.8 3.2 -11.8696
646 3 8 14.4 4.8 -11.2371
647 4 9.6 12.8 3.2 -13.314
648 3 11.2 14.4 4.8 -11.2026
649 1 12.8 12.8 3.2 -11.7981
650 3 14.4 14.4 4.8 -11.1232
651 1 16 12.8 3.2 -11.7803
652 4 17.6 14.4 4.8 -13.1478
653 1 19.2 12.8 3.2 -11.7087
654 3 20.8 14.4 4.8 -11.073
655 4 22.4 12.8 3.2 -13.2684
656 4 24 14.4 4.8 -13.1983
657 4 25.6 12.8 3.2 -13.182
658 2 27.2 14.4 4.8 -9.69204
659 4 28.8 12.8 3.2 -13.2683
660 3 30.4 14.4 4.8 -11.1106
661 1 32 12.8 3.2 -11.6252
662 2 33.6 14.4 4.8 -9.64616
663 1 35.2 12.8 3.2 -11.7018
664 3 36.8 14.4 4.8 -11.2398
665 1 38.4 12.8 3.2 -11.8149
666 3 40 14.4 4.8 -11.0715
667 4 41.6 12.8 3.2 -13.2871
668 4 43.2 14.4 4.8 -13.2722
669 4 44.8 12.8 3.2 -13.3071
670 3 46.4 14.4 4.8 -11.1519
671 1 48 12.8 3.2 -11.786
672 3 49.6 14.4 4.8 -11.3076
673 1 0 16 3.2 -11.7984
674 4 1.6 17.6 4.8 -13.1205
675 1 3.2 16 3.2 -11.6858
676 2 4.8 17.6 4.8 -9.65972
677 1 6.4 16 3.2 -11.766
678 3 8 17.6 4.8 -11.1963
679 1 9.6 16 3.2 -11.8701
680 3 11.2 17.6 4.8 -11.2416
681 1 12.8 16 3.2 -11.7796
682 3 14.4 17.6 4.8 -11.1156
683 1 16 16 3.2 -11.7342
684 3 17.6 17.6 4.8 -11.2254
685 1 19.2 16 3.2 -11.7392
686 2 20.8 17.6 4.8 -9.7649
687 4 22.4 16 3.2 -13.2774
688 3 24 17.6 4.8 -11.1033
689 1 25.6 16 3.2 -11.6949
690 3 27.2 17.6 4.8 -11.2368
691 4 28.8 16 3.2 -13.2788
692 3 30.4 17.6 4.8 -11.1997
693 1 32 16 3.2 -11.6919
694 3 33.6 17.6 4.8 -11.1651
695 1 35.2 16 3.2 -11.7334
696 3 36.8 17.6 4.8 -11.1642
697 1 38.4 16 3.2 -11.793
698 4 40 17.6 4.8 -13.098
699 1 41.6 16 3.2 -11.7228
700 3 43.2 17.6 4.8 -11.1195
701 1 44.8 16 3.2 -11.7978
702 3 46.4 17.6 4.8 -11.1998
703 1 48 16 3.2 -11.8277
704 2 49.6 17.6 4.8 -9.7287
705 4 0 19.2 3.2 -13.1564
706 4 1.6 20.8 4.8 -13.1234
707 1 3.2 19.2 3.2 -11.6785
708 3 4.8 20.8 4.8 -11.1073
709 4 6.4 19.2 3.2 -13.3177
710 2 8 20.8 4.8 -9.8684
711 4 9.6 19.2 3.2 -13.3538
712 2 11.2 20.8 4.8 -9.7306
713 1 12.8 19.2 3.2 -11.657
714 4 14.4 20.8 4.8 -13.082
715 1 16 19.2 3.2 -11.7121
716 3 17.6 20.8 4.8 -11.2536
717 4 19.2 19.2 3.2 -13.2992
718 4 20.8 20.8 4.8 -13.1765
719 2 22.4 19.2 3.2 -9.71939
720 2 24 20.8 4.8 -9.76464
721 1 25.6 19.2 3.2 -11.7353
722 4 27.2 20.8 4.8 -13.1832
723 4 28.8 19.2 3.2 -13.2733
724 2 30.4 20.8 4.8 -9.75966
725 1 32 19.2 3.2 -11.7573
726 3 33.6 20.8 4.8 -11.2405
727 1 35.2 19.2 3.2 -11.8279
728 3 36.8 20.8 4.8 -11.1651
729 1 38.4 19.2 3.2 -11.7414
730 3 40 20.8 4.8 -11.0809
731 1 41.6 19.2 3.2 -11.7244
732 3 43.2 20.8 4.8 -11.1247
733 1 44.8 19.2 3.2 -11.8556
734 3 46.4 20.8 4.8 -11.2057
735 1 48 19.2 3.2 -11.7394
736 2 49.6 20.8 4.8 -9.65696
737 1 0 22.4 3.2 -11.6382
738 3 1.6 24 4.8 -11.1068
739 1 3.2 22.4 3.2 -11.6845
740 2 4.8 24 4.8 -9.79063
741 4 6.4 22.4 3.2 -13.2812
742 4 8 24 4.8 -13.1321
743 2 9.6 22.4 3.2 -9.78298
744 4 11.2 24 4.8 -13.1788
745 4 12.8 22.4 3.2 -13.1361
746 4 14.4 24 4.8 -13.1518
747 4 16 22.4 3.2 -13.195
748 4 17.6 24 4.8 -13.2438
749 4 19.2 22.4 3.2 -13.1671
750 4 20.8 24 4.8 -13.0854
751 1 22.4 22.4 3.2 -11.5113
752 1 24 24 4.8 -11.6017
753 4 25.6 22.4 3.2 -13.0758
754 4 27.2 24 4.8 -13.1895
755 4 28.8 22.4 3.2 -13.1842
756 4 30.4 24 4.8 -13.1371
757 1 32 22.4 3.2 -11.769
758 3 33.6 24 4.8 -11.1247
759 1 35.2 22.4 3.2 -11.7617
760 4 36.8 24 4.8 -13.0509
761 1 38.4 22.4 3.2 -11.6866
762 3 40 24 4.8 -11.083
763 1 41.6 22.4 3.2 -11.6953
764 4 43.2 24 4.8 -12.9718
765 1 44.8 22.4 3.2 -11.7102
766 3 46.4 24 4.8 -11.1656
767 1 48 22.4 3.2 -11.7143
768 3 49.6 24 4.8 -11.1987
769 4 0 25.6 3.2 -13.172
771 4 3.2 25.6 3.2 -13.2276
773 4 6.4 25.6 3.2 -13.2222
775 2 9.6 25.6 3.2 -9.7379
777 2 12.8 25.6 3.2 -9.79254
779 3 16 25.6 3.2 -11.1493
781 4 19.2 25.6 3.2 -13.1658
783 2 22.4 25.6 3.2 -9.59505
785 4 25.6 25.6 3.2 -13.0909
787 4 28.8 25.6 3.2 -13.2006
789 1 32 25.6 3.2 -11.7657
791 1 35.2 25.6 3.2 -11.7469
793 1 38.4 25.6 3.2 -11.7351
795 4 41.6 25.6 3.2 -13.2237
797 1 44.8 25.6 3.2 -11.749
799 1 48 25.6 3.2 -11.7547
770 4 1.6 27.2 4.8 -13.1511
801 1 0 28.8 3.2 -11.6426
772 3 4.8 27.2 4.8 -11.0944
803 4 3.2 28.8 3.2 -13.1875
774 4 8 27.2 4.8 -13.1793
805 4 6.4 28.8 3.2 -13.2339
776 4 11.2 27.2 4.8 -13.2251
807 2 9.6 28.8 3.2 -9.82062
778 1 14.4 27.2 4.8 -11.7878
809 2 12.8 28.8 3.2 -9.82088
780 1 17.6 27.2 4.8 -11.772
811 3 16 28.8 3.2 -11.1499
782 4 20.8 27.2 4.8 -13.2658
813 4 19.2 28.8 3.2 -13.2047
784 4 24 27.2 4.8 -13.2515
815 3 22.4 28.8 3.2 -11.0982
817 4 25.6 28.8 3.2 -13.166
786 4 27.2 27.2 4.8 -13.2143
819 1 28.8 28.8 3.2 -11.6147
788 3 30.4 27.2 4.8 -11.116
821 1 32 28.8 3.2 -11.7501
790 3 33.6 27.2 4.8 -11.206
823 1 35.2 28.8 3.2 -11.7394
792 3 36.8 27.2 4.8 -11.1241
825 1 38.4 28.8 3.2 -11.7111
794 2 40 27.2 4.8 -9.7478
827 1 41.6 28.8 3.2 -11.7698
796 3 43.2 27.2 4.8 -11.1621
829 1 44.8 28.8 3.2 -11.7837
798 3 46.4 27.2 4.8 -11.2054
831 1 48 28.8 3.2 -11.7531
800 2 49.6 27.2 4.8 -9.66011
802 2 1.6 30.4 4.8 -9.66814
833 4 0 32 3.2 -13.2374
804 4 4.8 30.4 4.8 -13.2444
835 4 3.2 32 3.2 -13.2184
806 3 8 30.4 4.8 -11.1307
837 4 6.4 32 3.2 -13.2478
808 4 11.2 30.4 4.8 -13.2972
839 4 9.6 32 3.2 -13.2422
810 4 14.4 30.4 4.8 -13.2197
841 4 12.8 32 3.2 -13.1583
812 4 17.6 30.4 4.8 -13.2425
843 4 16 32 3.2 -13.1926
814 1 20.8 30.4 4.8 -11.6772
845 4 19.2 32 3.2 -13.1126
816 4 24 30.4 4.8 -13.3295
847 4 22.4 32 3.2 -13.2197
849 3 25.6 32 3.2 -11.0919
818 4 27.2 30.4 4.8 -13.1493
851 4 28.8 32 3.2 -13.2142
820 2 30.4 30.4 4.8 -9.73133
853 1 32 32 3.2 -11.7395
822 2 33.6 30.4 4.8 -9.6933
855 4 35.2 32 3.2 -13.2342
824 3 36.8 30.4 4.8 -11.1152
857 4 38.4 32 3.2 -13.177
826 4 40 30.4 4.8 -13.0757
859 4 41.6 32 3.2 -13.1843
828 2 43.2 30.4 4.8 -9.72133
861 1 44.8 32 3.2 -11.6933
830 3 46.4 30.4 4.8 -11.1206
863 4 48 32 3.2 -13.2887
832 3 49.6 30.4 4.8 -11.2356
834 3 1.6 33.6 4.8 -11.1528
865 1 0 35.2 3.2 -11.6833
836 3 4.8 33.6 4.8 -11.1868
867 4 3.2 35.2 3.2 -13.3064
838 4 8 33.6 4.8 -13.1543
869 1 6.4 35.2 3.2 -11.6364
840 3 11.2 33.6 4.8 -11.1055
871 1 9.6 35.2 3.2 -11.6494
842 4 14.4 33.6 4.8 -13.2039
873 1 12.8 35.2 3.2 -11.6606
844 3 17.6 33.6 4.8 -11.1365
875 4 16 35.2 3.2 -13.1707
846 2 20.8 33.6 4.8 -9.67231
877 1 19.2 35.2 3.2 -11.6925
848 4 24 33.6 4.8 -13.2261
879 1 22.4 35.2 3.2 -11.6451
881 4 25.6 35.2 3.2 -13.2674
850 4 27.2 33.6 4.8 -13.221
883 4 28.8 35.2 3.2 -13.1928
852 3 30.4 33.6 4.8 -11.165
885 4 32 35.2 3.2 -13.2983
854 4 33.6 33.6 4.8 -13.3015
887 4 35.2 35.2 3.2 -13.3568
856 2 36.8 33.6 4.8 -9.76536
889 4 38.4 35.2 3.2 -13.1387
858 4 40 33.6 4.8 -13.1392
891 3 41.6 35.2 3.2 -11.1917
860 2 43.2 33.6 4.8 -9.66807
893 1 44.8 35.2 3.2 -11.7273
862 4 46.4 33.6 4.8 -13.1553
895 1 48 35.2 3.2 -11.7374
864 3 49.6 33.6 4.8 -11.1158
866 2 1.6 36.8 4.8 -9.80872
897 1 0 38.4 3.2 -11.7998
868 3 4.8 36.8 4.8 -11.2974
899 4 3.2 38.4 3.2 -13.3231
870 2 8 36.8 4.8 -9.72705
901 4 6.4 38.4 3.2 -13.2908
872 3 11.2 36.8 4.8 -11.2343
903 4 9.6 38.4 3.2 -13.3292
874 2 14.4 36.8 4.8 -9.68863
905 1 12.8 38.4 3.2 -11.7199
876 3 17.6 36.8 4.8 -11.1972
907 1 16 38.4 3.2 -11.6373
878 3 20.8 36.8 4.8 -11.1603
909 1 19.2 38.4 3.2 -11.7048
880 3 24 36.8 4.8 -11.1811
911 1 22.4 38.4 3.2 -11.6851
913 4 25.6 38.4 3.2 -13.2672
882 4 27.2 36.8 4.8 -13.287
915 4 28.8 38.4 3.2 -13.1856
884 4 30.4 36.8 4.8 -13.2234
917 4 32 38.4 3.2 -13.0708
886 4 33.6 36.8 4.8 -13.3212
919 3 35.2 38.4 3.2 -11.1484
888 4 36.8 36.8 4.8 -13.296
921 4 38.4 38.4 3.2 -13.2069
890 4 40 36.8 4.8 -13.1943
923 3 41.6 38.4 3.2 -11.1922
892 4 43.2 36.8 4.8 -13.2817
925 4 44.8 38.4 3.2 -13.3095
894 3 46.4 36.8 4.8 -11.1546
927 1 48 38.4 3.2 -11.7839
896 2 49.6 36.8 4.8 -9.74252
898 3 1.6 40 4.8 -11.3003
929 1 0 41.6 3.2 -11.8015
900 3 4.8 40 4.8 -11.2845
931 1 3.2 41.6 3.2 -11.7363
902 3 8 40 4.8 -11.3329
933 1 6.4 41.6 3.2 -11.7263
904 2 11.2 40 4.8 -9.74619
935 1 9.6 41.6 3.2 -11.7183
906 3 14.4 40 4.8 -11.0399
937 1 12.8 41.6 3.2 -11.7285
908 3 17.6 40 4.8 -11.0353
939 1 16 41.6 3.2 -11.7301
910 4 20.8 40 4.8 -13.241
941 4 19.2 41.6 3.2 -13.2668
912 4 24 40 4.8 -13.1369
943 4 22.4 41.6 3.2 -13.2419
945 2 25.6 41.6 3.2 -9.73428
914 4 27.2 40 4.8 -13.2626
947 2 28.8 41.6 3.2 -9.76577
916 4 30.4 40 4.8 -13.18
949 2 32 41.6 3.2 -9.72356
918 1 33.6 40 4.8 -11.6466
951 3 35.2 41.6 3.2 -11.1214
920 1 36.8 40 4.8 -11.7988
953 3 38.4 41.6 3.2 -11.2306
922 4 40 40 4.8 -13.2783
955 4 41.6 41.6 3.2 -13.1931
924 4 43.2 40 4.8 -13.2227
957 4 44.8 41.6 3.2 -13.2558
926 3 46.4 40 4.8 -11.2578
959 4 48 41.6 3.2 -13.2693
928 3 49.6 40 4.8 -11.2673
930 3 1.6 43.2 4.8 -11.1519
961 4 0 44.8 3.2 -13.2111
932 4 4.8 43.2 4.8 -13.2029
963 4 3.2 44.8 3.2 -13.2749
934 3 8 43.2 4.8 -11.1172
965 4 6.4 44.8 3.2 -13.2108
936 3 11.2 43.2 4.8 -11.1224
967 4 9.6 44.8 3.2 -13.2135
938 3 14.4 43.2 4.8 -11.2042
969 1 12.8 44.8 3.2 -11.7978
940 4 17.6 43.2 4.8 -13.1584
971 1 16 44.8 3.2 -11.7189
942 3 20.8 43.2 4.8 -11.2212
973 1 19.2 44.8 3.2 -11.7024
944 4 24 43.2 4.8 -13.3316
975 1 22.4 44.8 3.2 -11.7719
977 4 25.6 44.8 3.2 -13.2337
946 4 27.2 43.2 4.8 -13.2341
979 4 28.8 44.8 3.2 -13.198
948 4 30.4 43.2 4.8 -13.2933
981 3 32 44.8 3.2 -11.1536
950 1 33.6 43.2 4.8 -11.7184
983 3 35.2 44.8 3.2 -11.1603
952 4 36.8 43.2 4.8 -13.3127
985 3 38.4 44.8 3.2 -11.1542
954 4 40 43.2 4.8 -13.1967
987 4 41.6 44.8 3.2 -13.2954
956 4 43.2 43.2 4.8 -13.2443
989 4 44.8 44.8 3.2 -13.2974
958 3 46.4 43.2 4.8 -11.2439
991 4 48 44.8 3.2 -13.1675
960 4 49.6 43.2 4.8 -13.3147
962 3 1.6 46.4 4.8 -11.1971
993 1 0 48 3.2 -11.6702
964 3 4.8 46.4 4.8 -11.1193
995 1 3.2 48 3.2 -11.6958
966 3 8 46.4 4.8 -11.1987
997 1 6.4 48 3.2 -11.7321
968 3 11.2 46.4 4.8 -11.277
999 1 9.6 48 3.2 -11.771
970 3 14.4 46.4 4.8 -11.2407
1001 1 12.8 48 3.2 -11.7975
972 4 17.6 46.4 4.8 -13.0718
1003 4 16 48 3.2 -13.2152
974 3 20.8 46.4 4.8 -11.2287
1005 1 19.2 48 3.2 -11.646
976 3 24 46.4 4.8 -11.1364
1007 1 22.4 48 3.2 -11.6932
1009 4 25.6 48 3.2 -13.1254
978 1 27.2 46.4 4.8 -11.6862
1011 2 28.8 48 3.2 -9.70797
980 4 30.4 46.4 4.8 -13.2991
1013 3 32 48 3.2 -11.1081
982 1 33.6 46.4 4.8 -11.7472
1015 4 35.2 48 3.2 -13.1648
984 1 36.8 46.4 4.8 -11.7828
1017 3 38.4 48 3.2 -11.2229
986 4 40 46.4 4.8 -13.3561
1019 4 41.6 48 3.2 -13.2855
988 3 43.2 46.4 4.8 -11.2263
1021 4 44.8 48 3.2 -13.2319
990 4 46.4 46.4 4.8 -13.1947
1023 1 48 48 3.2 -11.6221
992 3 49.6 46.4 4.8 -11.0666
994 2 1.6 49.6 4.8 -9.69727
996 3 4.8 49.6 4.8 -11.1627
998 2 8 49.6 4.8 -9.73533
1000 3 11.2 49.6 4.8 -11.2045
1002 3 14.4 49.6 4.8 -11.1577
1004 2 17.6 49.6 4.8 -9.69028
1006 3 20.8 49.6 4.8 -11.0796
1008 4 24 49.6 4.8 -13.138
1010 1 27.2 49.6 4.8 -11.548
1012 4 30.4 49.6 4.8 -13.1831
1014 4 33.6 49.6 4.8 -13.1947
1016 4 36.8 49.6 4.8 -13.2348
1018 4 40 49.6 4.8 -13.2544
1020 4 43.2 49.6 4.8 -13.1674
1022 2 46.4 49.6 4.8 -9.63109
1024 4 49.6 49.6 4.8 -13.1105
1025 4 0 0 6.4 -13.2346
1026 4 1.6 1.6 8 -13.1534
1027 4 3.2 0 6.4 -13.2085
1028 2 4.8 1.6 8 -9.75272
1029 1 6.4 0 6.4 -11.7984
1030 3 8 1.6 8 -11.1627
1031 1 9.6 0 6.4 -11.8123
1032 3 11.2 1.6 8 -11.2745
1033 1 12.8 0 6.4 -11.7977
1034 3 14.4 1.6 8 -11.158
1035 4 16 0 6.4 -13.235
1036 2 17.6 1.6 8 -9.72249
1037 1 19.2 0 6.4 -11.6867
1038 3 20.8 1.6 8 -11.1607
1039 4 22.4 0 6.4 -13.2497
1040 2 24 1.6 8 -9.79579
1041 4 25.6 0 6.4 -13.0999
1042 2 27.2 1.6 8 -9.7363
1043 4 28.8 0 6.4 -13.104
1044 4 30.4 1.6 8 -13.1211
1045 3 32 0 6.4 -11.0507
1046 4 33.6 1.6 8 -13.2347
1047 4 35.2 0 6.4 -13.2208
1048 4 36.8 1.6 8 -13.1409
1049 4 38.4 0 6.4 -13.2223
1050 4 40 1.6 8 -13.1836
1051 4 41.6 0 6.4 -13.2221
1052 3 43.2 1.6 8 -11.152
1053 1 44.8 0 6.4 -11.7348
1054 3 46.4 1.6 8 -11.2727
1055 1 48 0 6.4 -11.7471
1056 3 49.6 1.6 8 -11.2549
1057 4 0 3.2 6.4 -13.2649
1058 4 1.6 4.8 8 -13.1719
1059 1 3.2 3.2 6.4 -11.6685
1060 2 4.8 4.8 8 -9.71943
1061 1 6.4 3.2 6.4 -11.7806
1062 3 8 4.8 8 -11.1624
1063 1 9.6 3.2 6.4 -11.8557
1064 3 11.2 4.8 8 -11.1987
1065 1 12.8 3.2 6.4 -11.7637
1066 4 14.4 4.8 8 -13.0187
1067 1 16 3.2 6.4 -11.669
1068 2 17.6 4.8 8 -9.58018
1069 1 19.2 3.2 6.4 -11.7506
1070 3 20.8 4.8 8 -11.0827
1071 1 22.4 3.2 6.4 -11.7691
1072 4 24 4.8 8 -13.1124
1073 4 25.6 3.2 6.4 -13.2657
1074 3 27.2 4.8 8 -11.2815
1075 4 28.8 3.2 6.4 -13.2465
1076 4 30.4 4.8 8 -13.2527
1077 4 32 3.2 6.4 -13.3008
1078 2 33.6 4.8 8 -9.79434
1079 4 35.2 3.2 6.4 -13.2244
1080 4 36.8 4.8 8 -13.2082
1081 4 38.4 3.2 6.4 -13.1883
1082 2 40 4.8 8 -9.67379
1083 1 41.6 3.2 6.4 -11.7861
1084 3 43.2 4.8 8 -11.0693
1085 4 44.8 3.2 6.4 -13.248
1086 4 46.4 4.8 8 -13.0729
1087 1 48 3.2 6.4 -11.7329
1088 2 49.6 4.8 8 -9.78251
1089 4 0 6.4 6.4 -13.2827
1090 4 1.6 8 8 -13.0635
1091 1 3.2 6.4 6.4 -11.7232
1092 3 4.8 8 8 -11.1643
1093 1 6.4 6.4 6.4 -11.783
1094 3 8 8 8 -11.2395
1095 1 9.6 6.4 6.4 -11.7464
1096 3 11.2 8 8 -11.1965
1097 1 12.8 6.4 6.4 -11.7226
1098 3 14.4 8 8 -11.1565
1099 1 16 6.4 6.4 -11.6556
1100 2 17.6 8 8 -9.64604
1101 1 19.2 6.4 6.4 -11.7038
1102 4 20.8 8 8 -13.1079
1103 4 22.4 6.4 6.4 -13.2154