ITEM: TIMESTEP
0
ITEM: NUMBER OF ATOMS
8192
ITEM: BOX BOUNDS pp pp pp
0.0000000000000000e+00 5.1200000000000003e+01
0.0000000000000000e+00 5.1200000000000003e+01
0.0000000000000000e+00 5.1200000000000003e+01
ITEM: ATOMS id type x y z c_eng
1 1 0 0 0 -11.7516
2 3 1.6 1.6 1.6 -11.2698
3 1 3.2 0 0 -11.8132
4 3 4.8 1.6 1.6 -11.2353
5 1 6.4 0 0 -11.8058
6 3 8 1.6 1.6 -11.2332
7 4 9.6 0 0 -13.2045
8 4 11.2 1.6 1.6 -13.2094
9 4 12.8 0 0 -13.2551
10 3 14.4 1.6 1.6 -11.2578
11 1 16 0 0 -11.7937
12 3 17.6 1.6 1.6 -11.2057
13 1 19.2 0 0 -11.7805
14 3 20.8 1.6 1.6 -11.2732
15 4 22.4 0 0 -13.3588
16 3 24 1.6 1.6 -11.1441
17 4 25.6 0 0 -13.1767
18 2 27.2 1.6 1.6 -9.70874
19 4 28.8 0 0 -13.1012
20 1 30.4 1.6 1.6 -11.6245
21 3 32 0 0 -11.1245
22 1 33.6 1.6 1.6 -11.7212
23 3 35.2 0 0 -11.2364
24 4 36.8 1.6 1.6 -13.2175
25 2 38.4 0 0 -9.73438
26 4 40 1.6 1.6 -13.1931
27 4 41.6 0 0 -13.1218
28 4 43.2 1.6 1.6 -13.0601
29 4 44.8 0 0 -13.155
30 3 46.4 1.6 1.6 -11.1054
31 4 48 0 0 -13.3412
32 3 49.6 1.6 1.6 -11.2731
33 4 0 3.2 0 -13.2986
34 3 1.6 4.8 1.6 -11.1918
35 4 3.2 3.2 0 -13.2634
36 4 4.8 4.8 1.6 -13.2006
37 1 6.4 3.2 0 -11.7685
38 3 8 4.8 1.6 -11.1883
39 1 9.6 3.2 0 -11.7577
40 4 11.2 4.8 1.6 -13.2335
41 3 12.8 3.2 0 -11.1223
42 3 14.4 4.8 1.6 -11.2339
43 1 16 3.2 0 -11.745
44 3 17.6 4.8 1.6 -10.9958
45 1 19.2 3.2 0 -11.6709
46 3 20.8 4.8 1.6 -11.0824
47 1 22.4 3.2 0 -11.6691
48 4 24 4.8 1.6 -12.9786
49 4 25.6 3.2 0 -13.1709
50 4 27.2 4.8 1.6 -13.1352
51 3 28.8 3.2 0 -11.1471
52 4 30.4 4.8 1.6 -13.1094
53 3 32 3.2 0 -11.2373
54 4 33.6 4.8 1.6 -13.1392
55 3 35.2 3.2 0 -11.1487
56 4 36.8 4.8 1.6 -13.1028
57 2 38.4 3.2 0 -9.79065
58 4 40 4.8 1.6 -13.0297
59 2 41.6 3.2 0 -9.57258
60 4 43.2 4.8 1.6 -13.0085
61 1 44.8 3.2 0 -11.5449
62 4 46.4 4.8 1.6 -12.9354
63 4 48 3.2 0 -13.1997
64 3 49.6 4.8 1.6 -11.196
65 1 0 6.4 0 -11.7154
66 3 1.6 8 1.6 -11.1213
67 4 3.2 6.4 0 -13.2468
68 2 4.8 8 1.6 -9.73705
69 4 6.4 6.4 0 -13.2903
70 3 8 8 1.6 -11.3009
71 4 9.6 6.4 0 -13.2622
72 3 11.2 8 1.6 -11.2037
73 1 12.8 6.4 0 -11.7362
74 3 14.4 8 1.6 -11.1237
75 1 16 6.4 0 -11.6729
76 4 17.6 8 1.6 -13.1964
77 1 19.2 6.4 0 -11.7037
78 3 20.8 8 1.6 -11.2636
79 1 22.4 6.4 0 -11.5907
80 3 24 8 1.6 -11.153
81 1 25.6 6.4 0 -11.6204
82 3 27.2 8 1.6 -11.199
83 4 28.8 6.4 0 -13.268
84 4 30.4 8 1.6 -13.2192
85 2 32 6.4 0 -9.64248
86 4 33.6 8 1.6 -13.0563
87 4 35.2 6.4 0 -13.1774
88 4 36.8 8 1.6 -13.1134
89 3 38.4 6.4 0 -11.0593
90 4 40 8 1.6 -13.1976
91 2 41.6 6.4 0 -9.79394
92 3 43.2 8 1.6 -11.1508
93 4 44.8 6.4 0 -13.2206
94 3 46.4 8 1.6 -11.1557
95 1 48 6.4 0 -11.6988
96 2 49.6 8 1.6 -9.71488
97 1 0 9.6 0 -11.7046
98 3 1.6 11.2 1.6 -11.125
99 1 3.2 9.6 0 -11.7225
100 4 4.8 11.2 1.6 -12.9693
101 1 6.4 9.6 0 -11.7181
102 2 8 11.2 1.6 -9.68372
103 1 9.6 9.6 0 -11.7975
104 3 11.2 11.2 1.6 -11.0835
105 1 12.8 9.6 0 -11.7664
106 3 14.4 11.2 1.6 -11.1542
107 1 16 9.6 0 -11.6887
108 3 17.6 11.2 1.6 -11.1489
109 4 19.2 9.6 0 -13.27
110 3 20.8 11.2 1.6 -11.2963
111 4 22.4 9.6 0 -13.3293
112 3 24 11.2 1.6 -11.263
113 1 25.6 9.6 0 -11.7928
114 3 27.2 11.2 1.6 -11.3038
115 4 28.8 9.6 0 -13.2711
116 3 30.4 11.2 1.6 -11.2212
117 4 32 9.6 0 -13.199
118 4 33.6 11.2 1.6 -13.1472
119 3 35.2 9.6 0 -10.9782
120 4 36.8 11.2 1.6 -13.0896
121 4 38.4 9.6 0 -13.1877
122 2 40 11.2 1.6 -9.63919
123 4 41.6 9.6 0 -13.2333
124 2 43.2 11.2 1.6 -9.66702
125 4 44.8 9.6 0 -13.2574
126 4 46.4 11.2 1.6 -13.2005
127 4 48 9.6 0 -13.2457
128 3 49.6 11.2 1.6 -11.08
129 1 0 12.8 0 -11.7842
130 3 1.6 14.4 1.6 -11.1234
131 1 3.2 12.8 0 -11.7141
132 2 4.8 14.4 1.6 -9.68241
133 1 6.4 12.8 0 -11.6654
134 2 8 14.4 1.6 -9.68295
135 1 9.6 12.8 0 -11.753
136 3 11.2 14.4 1.6 -11.1267
137 1 12.8 12.8 0 -11.6903
138 4 14.4 14.4 1.6 -13.1058
139 1 16 12.8 0 -11.643
140 2 17.6 14.4 1.6 -9.66164
141 4 19.2 12.8 0 -13.2477
142 3 20.8 14.4 1.6 -11.1138
143 1 22.4 12.8 0 -11.6941
144 4 24 14.4 1.6 -13.121
145 4 25.6 12.8 0 -13.301
146 3 27.2 14.4 1.6 -11.2268
147 4 28.8 12.8 0 -13.3348
148 3 30.4 14.4 1.6 -11.2676
149 4 32 12.8 0 -13.2628
150 2 33.6 14.4 1.6 -9.76366
151 4 35.2 12.8 0 -13.1412
152 4 36.8 14.4 1.6 -13.044
153 4 38.4 12.8 0 -13.0687
154 4 40 14.4 1.6 -13.0358
155 4 41.6 12.8 0 -13.1338
156 4 43.2 14.4 1.6 -13.1204
157 1 44.8 12.8 0 -11.7126
158 3 46.4 14.4 1.6 -11.0714
159 1 48 12.8 0 -11.7616
160 2 49.6 14.4 1.6 -9.74907
161 1 0 16 0 -11.6944
162 3 1.6 17.6 1.6 -11.1509
163 1 3.2 16 0 -11.7825
164 3 4.8 17.6 1.6 -11.2356
165 1 6.4 16 0 -11.8118
166 3 8 17.6 1.6 -11.2352
167 1 9.6 16 0 -11.8121
168 3 11.2 17.6 1.6 -11.2414
169 1 12.8 16 0 -11.7803
170 3 14.4 17.6 1.6 -11.0841
171 1 16 16 0 -11.6305
172 2 17.6 17.6 1.6 -9.72329
173 4 19.2 16 0 -13.197
174 3 20.8 17.6 1.6 -11.1875
175 4 22.4 16 0 -13.0774
176 4 24 17.6 1.6 -13.0106
177 4 25.6 16 0 -13.1603
178 3 27.2 17.6 1.6 -11.2943
179 4 28.8 16 0 -13.2232
180 3 30.4 17.6 1.6 -11.2329
181 1 32 16 0 -11.7279
182 3 33.6 17.6 1.6 -11.2021
183 4 35.2 16 0 -13.1616
184 4 36.8 17.6 1.6 -13.0443
185 4 38.4 16 0 -13.1433
186 4 40 17.6 1.6 -13.1244
187 4 41.6 16 0 -13.256
188 3 43.2 17.6 1.6 -11.1761
189 1 44.8 16 0 -11.7896
190 3 46.4 17.6 1.6 -11.1834
191 1 48 16 0 -11.7036
192 4 49.6 17.6 1.6 -13.1177
193 4 0 19.2 0 -13.1896
194 4 1.6 20.8 1.6 -13.2047
195 1 3.2 19.2 0 -11.698
196 3 4.8 20.8 1.6 -11.1759
197 1 6.4 19.2 0 -11.7973
198 3 8 20.8 1.6 -11.3115
199 1 9.6 19.2 0 -11.8101
200 3 11.2 20.8 1.6 -11.2592
201 1 12.8 19.2 0 -11.8278
202 2 14.4 20.8 1.6 -9.73186
203 1 16 19.2 0 -11.7232
204 2 17.6 20.8 1.6 -9.73663
205 4 19.2 19.2 0 -13.2627
206 4 20.8 20.8 1.6 -13.2323
207 2 22.4 19.2 0 -9.76504
208 4 24 20.8 1.6 -13.146
209 4 25.6 19.2 0 -13.2258
210 3 27.2 20.8 1.6 -11.1677
211 4 28.8 19.2 0 -13.2911
212 2 30.4 20.8 1.6 -9.83302
213 1 32 19.2 0 -11.789
214 3 33.6 20.8 1.6 -11.1234
215 1 35.2 19.2 0 -11.753
216 2 36.8 20.8 1.6 -9.66892
217 4 38.4 19.2 0 -13.1549
218 4 40 20.8 1.6 -13.1676
219 4 41.6 19.2 0 -13.2959
220 3 43.2 20.8 1.6 -11.1868
221 4 44.8 19.2 0 -13.1921
222 4 46.4 20.8 1.6 -13.2038
223 1 48 19.2 0 -11.6502
224 3 49.6 20.8 1.6 -11.071
225 1 0 22.4 0 -11.7588
226 3 1.6 24 1.6 -11.0219
227 1 3.2 22.4 0 -11.6503
228 4 4.8 24 1.6 -13.1934
229 4 6.4 22.4 0 -13.2193
230 4 8 24 1.6 -13.3266
231 4 9.6 22.4 0 -13.3008
232 4 11.2 24 1.6 -13.2438
233 4 12.8 22.4 0 -13.2199
234 1 14.4 24 1.6 -11.6673
235 4 16 22.4 0 -13.3062
236 1 17.6 24 1.6 -11.7148
237 2 19.2 22.4 0 -9.7596
238 1 20.8 24 1.6 -11.6809
239 3 22.4 22.4 0 -11.1796
240 4 24 24 1.6 -13.1668
241 4 25.6 22.4 0 -13.2233
242 4 27.2 24 1.6 -13.15
243 4 28.8 22.4 0 -13.2372
244 3 30.4 24 1.6 -11.069
245 1 32 22.4 0 -11.7079
246 4 33.6 24 1.6 -13.0802
247 4 35.2 22.4 0 -13.2059
248 4 36.8 24 1.6 -13.1671
249 1 38.4 22.4 0 -11.7343
250 3 40 24 1.6 -11.0789
251 1 41.6 22.4 0 -11.7223
252 3 43.2 24 1.6 -11.2416
253 4 44.8 22.4 0 -13.2139
254 3 46.4 24 1.6 -11.1596
255 4 48 22.4 0 -13.2496
256 4 49.6 24 1.6 -13.1546
257 1 0 25.6 0 -11.6771
259 4 3.2 25.6 0 -13.1774
261 2 6.4 25.6 0 -9.70353
263 3 9.6 25.6 0 -11.1432
265 4 12.8 25.6 0 -13.1926
267 3 16 25.6 0 -11.1568
269 3 19.2 25.6 0 -11.196
271 4 22.4 25.6 0 -13.2086
273 2 25.6 25.6 0 -9.67581
275 1 28.8 25.6 0 -11.6618
277 1 32 25.6 0 -11.6463
279 4 35.2 25.6 0 -13.2075
281 1 38.4 25.6 0 -11.7367
283 1 41.6 25.6 0 -11.7387
285 1 44.8 25.6 0 -11.8573
287 1 48 25.6 0 -11.708
258 4 1.6 27.2 1.6 -13.2532
289 3 0 28.8 0 -11.1042
260 1 4.8 27.2 1.6 -11.6731
291 3 3.2 28.8 0 -11.1172
262 1 8 27.2 1.6 -11.7235
293 3 6.4 28.8 0 -11.1605
264 1 11.2 27.2 1.6 -11.7568
295 2 9.6 28.8 0 -9.72729
266 1 14.4 27.2 1.6 -11.7975
297 3 12.8 28.8 0 -11.1591
268 1 17.6 27.2 1.6 -11.8554
299 3 16 28.8 0 -11.2781
270 4 20.8 27.2 1.6 -13.27
301 3 19.2 28.8 0 -11.1518
272 4 24 27.2 1.6 -13.1928
303 4 22.4 28.8 0 -13.1632
305 4 25.6 28.8 0 -13.145
274 4 27.2 27.2 1.6 -13.1653
307 1 28.8 28.8 0 -11.6532
276 3 30.4 27.2 1.6 -11.1518
309 1 32 28.8 0 -11.738
278 3 33.6 27.2 1.6 -11.2272
311 1 35.2 28.8 0 -11.707
280 3 36.8 27.2 1.6 -11.2357
313 4 38.4 28.8 0 -13.2487
282 3 40 27.2 1.6 -11.2042
315 1 41.6 28.8 0 -11.7188
284 3 43.2 27.2 1.6 -11.1598
317 4 44.8 28.8 0 -13.3029
286 3 46.4 27.2 1.6 -11.1934
319 1 48 28.8 0 -11.6957
288 4 49.6 27.2 1.6 -13.0269
290 1 1.6 30.4 1.6 -11.7615
321 3 0 32 0 -11.0701
292 1 4.8 30.4 1.6 -11.7243
323 4 3.2 32 0 -13.1616
294 1 8 30.4 1.6 -11.687
325 2 6.4 32 0 -9.61055
296 1 11.2 30.4 1.6 -11.7677
327 4 9.6 32 0 -13.078
298 1 14.4 30.4 1.6 -11.8552
329 3 12.8 32 0 -11.1937
300 1 17.6 30.4 1.6 -11.7522
331 3 16 32 0 -11.1994
302 4 20.8 30.4 1.6 -13.2386
333 4 19.2 32 0 -13.2092
304 4 24 30.4 1.6 -13.1426
335 4 22.4 32 0 -13.1571
337 4 25.6 32 0 -13.1428
306 4 27.2 30.4 1.6 -13.1455
339 4 28.8 32 0 -13.2325
308 2 30.4 30.4 1.6 -9.76223
341 4 32 32 0 -13.2959
310 3 33.6 30.4 1.6 -11.1885
343 4 35.2 32 0 -13.2344
312 2 36.8 30.4 1.6 -9.76461
345 2 38.4 32 0 -9.76205
314 3 40 30.4 1.6 -11.1832
347 2 41.6 32 0 -9.70946
316 4 43.2 30.4 1.6 -13.1811
349 4 44.8 32 0 -13.1501
318 3 46.4 30.4 1.6 -11.1348
351 4 48 32 0 -13.244
320 4 49.6 30.4 1.6 -13.2441
322 4 1.6 33.6 1.6 -13.1816
353 3 0 35.2 0 -11.2271
324 4 4.8 33.6 1.6 -13.201
355 2 3.2 35.2 0 -9.67823
326 4 8 33.6 1.6 -13.1776
357 3 6.4 35.2 0 -11.0673
328 4 11.2 33.6 1.6 -13.2948
359 2 9.6 35.2 0 -9.72966
330 4 14.4 33.6 1.6 -13.3214
361 3 12.8 35.2 0 -11.2222
332 4 17.6 33.6 1.6 -13.2452
363 4 16 35.2 0 -13.2433
334 3 20.8 33.6 1.6 -11.1809
365 1 19.2 35.2 0 -11.7681
336 4 24 33.6 1.6 -13.2115
367 1 22.4 35.2 0 -11.8015
369 4 25.6 35.2 0 -13.2382
338 2 27.2 33.6 1.6 -9.63999
371 4 28.8 35.2 0 -13.2352
340 4 30.4 33.6 1.6 -13.2231
373 2 32 35.2 0 -9.76471
342 4 33.6 33.6 1.6 -13.1831
375 4 35.2 35.2 0 -13.1454
344 4 36.8 33.6 1.6 -13.1609
377 4 38.4 35.2 0 -13.2038
346 1 40 33.6 1.6 -11.684
379 3 41.6 35.2 0 -11.0233
348 1 43.2 33.6 1.6 -11.605
381 2 44.8 35.2 0 -9.73481
350 4 46.4 33.6 1.6 -13.2403
383 3 48 35.2 0 -11.2547
352 4 49.6 33.6 1.6 -13.2329
354 1 1.6 36.8 1.6 -11.6589
385 3 0 38.4 0 -11.0994
356 4 4.8 36.8 1.6 -13.1699
387 4 3.2 38.4 0 -13.1295
358 1 8 36.8 1.6 -11.5971
389 4 6.4 38.4 0 -13.051
360 4 11.2 36.8 1.6 -13.1939
391 3 9.6 38.4 0 -11.0998
362 4 14.4 36.8 1.6 -13.1839
393 4 12.8 38.4 0 -13.1406
364 3 17.6 36.8 1.6 -11.1899
395 4 16 38.4 0 -13.2257
366 3 20.8 36.8 1.6 -11.2711
397 1 19.2 38.4 0 -11.765
368 3 24 36.8 1.6 -11.1127
399 1 22.4 38.4 0 -11.7577
401 1 25.6 38.4 0 -11.6872
370 4 27.2 36.8 1.6 -13.1615
403 4 28.8 38.4 0 -13.1393
372 4 30.4 36.8 1.6 -13.2265
405 4 32 38.4 0 -13.2466
374 4 33.6 36.8 1.6 -13.2449
407 3 35.2 38.4 0 -11.1501
376 1 36.8 36.8 1.6 -11.7104
409 3 38.4 38.4 0 -11.1095
378 1 40 36.8 1.6 -11.718
411 4 41.6 38.4 0 -13.2548
380 1 43.2 36.8 1.6 -11.6106
413 4 44.8 38.4 0 -13.0194
382 1 46.4 36.8 1.6 -11.6387
415 3 48 38.4 0 -11.1394
384 4 49.6 36.8 1.6 -13.2219
386 1 1.6 40 1.6 -11.6198
417 4 0 41.6 0 -13.2376
388 4 4.8 40 1.6 -13.2322
419 3 3.2 41.6 0 -11.0947
390 4 8 40 1.6 -13.0325
421 4 6.4 41.6 0 -13.1696
392 4 11.2 40 1.6 -13.143
423 4 9.6 41.6 0 -13.1926
394 2 14.4 40 1.6 -9.73363
425 4 12.8 41.6 0 -13.1631
396 3 17.6 40 1.6 -11.2646
427 4 16 41.6 0 -13.1975
398 2 20.8 40 1.6 -9.69243
429 1 19.2 41.6 0 -11.6956
400 4 24 40 1.6 -13.2219
431 4 22.4 41.6 0 -13.2239
433 4 25.6 41.6 0 -13.2587
402 1 27.2 40 1.6 -11.6154
435 4 28.8 41.6 0 -13.113
404 4 30.4 40 1.6 -13.2468
437 3 32 41.6 0 -11.16
406 1 33.6 40 1.6 -11.8062
439 2 35.2 41.6 0 -9.69769
408 1 36.8 40 1.6 -11.7408
441 4 38.4 41.6 0 -13.1945
410 4 40 40 1.6 -13.2156
443 4 41.6 41.6 0 -13.3141
412 2 43.2 40 1.6 -9.70654
445 4 44.8 41.6 0 -13.1588
414 1 46.4 40 1.6 -11.504
447 4 48 41.6 0 -13.1447
416 1 49.6 40 1.6 -11.5939
418 4 1.6 43.2 1.6 -13.1683
449 4 0 44.8 0 -13.1772
420 2 4.8 43.2 1.6 -9.73404
451 4 3.2 44.8 0 -13.07
422 4 8 43.2 1.6 -13.2451
453 2 6.4 44.8 0 -9.7012
424 3 11.2 43.2 1.6 -11.0915
455 4 9.6 44.8 0 -13.2942
426 4 14.4 43.2 1.6 -13.0742
457 1 12.8 44.8 0 -11.6209
428 3 17.6 43.2 1.6 -11.1985
459 1 16 44.8 0 -11.7118
430 4 20.8 43.2 1.6 -13.1628
461 4 19.2 44.8 0 -13.241
432 3 24 43.2 1.6 -11.2078
463 4 22.4 44.8 0 -13.2273
465 4 25.6 44.8 0 -13.1842
434 1 27.2 43.2 1.6 -11.6371
467 2 28.8 44.8 0 -9.69033
436 1 30.4 43.2 1.6 -11.7639
469 3 32 44.8 0 -11.123
438 1 33.6 43.2 1.6 -11.7659
471 4 35.2 44.8 0 -13.189
440 4 36.8 43.2 1.6 -13.1734
473 4 38.4 44.8 0 -13.2505
442 3 40 43.2 1.6 -11.2226
475 1 41.6 44.8 0 -11.8098
444 3 43.2 43.2 1.6 -11.2709
477 1 44.8 44.8 0 -11.8147
446 3 46.4 43.2 1.6 -11.124
479 1 48 44.8 0 -11.7445
448 3 49.6 43.2 1.6 -11.1584
450 2 1.6 46.4 1.6 -9.52261
481 1 0 48 0 -11.6834
452 4 4.8 46.4 1.6 -13.0763
483 1 3.2 48 0 -11.6469
454 3 8 46.4 1.6 -11.1293
485 4 6.4 48 0 -13.2385
456 4 11.2 46.4 1.6 -13.1876
487 4 9.6 48 0 -13.164
458 2 14.4 46.4 1.6 -9.65415
489 1 12.8 48 0 -11.6743
460 3 17.6 46.4 1.6 -11.2323
491 1 16 48 0 -11.7982
462 3 20.8 46.4 1.6 -11.2313
493 4 19.2 48 0 -13.3375
464 3 24 46.4 1.6 -11.1019
495 4 22.4 48 0 -13.2993
497 4 25.6 48 0 -13.1698
466 1 27.2 46.4 1.6 -11.6442
499 3 28.8 48 0 -11.1923
468 1 30.4 46.4 1.6 -11.8135
501 3 32 48 0 -11.2021
470 1 33.6 46.4 1.6 -11.7085
503 3 35.2 48 0 -11.0805
472 1 36.8 46.4 1.6 -11.6706
505 4 38.4 48 0 -13.2889
474 3 40 46.4 1.6 -11.1556
507 1 41.6 48 0 -11.6811
476 3 43.2 46.4 1.6 -11.1659
509 1 44.8 48 0 -11.7553
478 3 46.4 46.4 1.6 -11.1247
511 1 48 48 0 -11.7216
480 2 49.6 46.4 1.6 -9.65707
482 3 1.6 49.6 1.6 -11.1666
484 2 4.8 49.6 1.6 -9.74864
486 3 8 49.6 1.6 -11.2571
488 4 11.2 49.6 1.6 -13.0789
490 3 14.4 49.6 1.6 -11.0766
492 3 17.6 49.6 1.6 -11.2405
494 3 20.8 49.6 1.6 -11.3025
496 4 24 49.6 1.6 -13.2439
498 1 27.2 49.6 1.6 -11.5801
500 4 30.4 49.6 1.6 -13.1493
502 1 33.6 49.6 1.6 -11.6859
504 4 36.8 49.6 1.6 -13.2457
506 3 40 49.6 1.6 -11.1315
508 4 43.2 49.6 1.6 -13.1661
510 3 46.4 49.6 1.6 -11.2338
512 3 49.6 49.6 1.6 -11.2018
513 1 0 0 3.2 -11.8117
514 2 1.6 1.6 4.8 -9.72466
515 1 3.2 0 3.2 -11.7978
516 3 4.8 1.6 4.8 -11.2639
517 1 6.4 0 3.2 -11.8152
518 4 8 1.6 4.8 -13.2793
519 4 9.6 0 3.2 -13.2623
520 2 11.2 1.6 4.8 -9.74163
521 1 12.8 0 3.2 -11.6378
522 4 14.4 1.6 4.8 -13.0687
523 1 16 0 3.2 -11.7102
524 3 17.6 1.6 4.8 -11.1198
525 1 19.2 0 3.2 -11.8554
526 3 20.8 1.6 4.8 -11.232
527 4 22.4 0 3.2 -13.3044
528 4 24 1.6 4.8 -13.2081
529 4 25.6 0 3.2 -13.1667
530 3 27.2 1.6 4.8 -11.1383
531 4 28.8 0 3.2 -13.1045
532 4 30.4 1.6 4.8 -13.1496
533 4 32 0 3.2 -13.0976
534 3 33.6 1.6 4.8 -11.1209
535 2 35.2 0 3.2 -9.67713
536 4 36.8 1.6 4.8 -13.2527
537 4 38.4 0 3.2 -13.2628
538 3 40 1.6 4.8 -11.1656
539 4 41.6 0 3.2 -13.2414
540 3 43.2 1.6 4.8 -11.2585
541 4 44.8 0 3.2 -13.2997
542 2 46.4 1.6 4.8 -9.75217
543 1 48 0 3.2 -11.8574
544 3 49.6 1.6 4.8 -11.2395
545 1 0 3.2 3.2 -11.7981
546 4 1.6 4.8 4.8 -13.0857
547 4 3.2 3.2 3.2 -13.2662
548 2 4.8 4.8 4.8 -9.67119
549 4 6.4 3.2 3.2 -13.2736
550 4 8 4.8 4.8 -13.2476
551 4 9.6 3.2 3.2 -13.21
552 3 11.2 4.8 4.8 -11.1897
553 4 12.8 3.2 3.2 -13.2983
554 3 14.4 4.8 4.8 -11.1137
555 1 16 3.2 3.2 -11.7407
556 4 17.6 4.8 4.8 -13.195
557 1 19.2 3.2 3.2 -11.7977
558 3 20.8 4.8 4.8 -11.199
559 1 22.4 3.2 3.2 -11.7573
560 3 24 4.8 4.8 -11.0787
561 1 25.6 3.2 3.2 -11.6812
562 3 27.2 4.8 4.8 -11.1913
563 4 28.8 3.2 3.2 -13.1973
564 4 30.4 4.8 4.8 -13.1686
565 4 32 3.2 3.2 -13.1186
566 3 33.6 4.8 4.8 -11.1434
567 4 35.2 3.2 3.2 -13.1961
568 4 36.8 4.8 4.8 -13.2068
569 4 38.4 3.2 3.2 -13.1019
570 4 40 4.8 4.8 -13.1701
571 1 41.6 3.2 3.2 -11.6197
572 3 43.2 4.8 4.8 -11.0305
573 1 44.8 3.2 3.2 -11.583
574 4 46.4 4.8 4.8 -13.0196
575 1 48 3.2 3.2 -11.695
576 3 49.6 4.8 4.8 -11.1199
577 1 0 6.4 3.2 -11.7037
578 4 1.6 8 4.8 -13.0062
579 1 3.2 6.4 3.2 -11.6258
580 4 4.8 8 4.8 -13.1208
581 4 6.4 6.4 3.2 -13.2354
582 3 8 8 4.8 -11.1925
583 1 9.6 6.4 3.2 -11.7776
584 3 11.2 8 4.8 -11.0375
585 1 12.8 6.4 3.2 -11.7332
586 4 14.4 8 4.8 -13.1256
587 1 16 6.4 3.2 -11.6767
588 2 17.6 8 4.8 -9.66521
589 1 19.2 6.4 3.2 -11.7231
590 3 20.8 8 4.8 -11.2279
591 1 22.4 6.4 3.2 -11.7928
592 3 24 8 4.8 -11.2331
593 1 25.6 6.4 3.2 -11.7387
594 3 27.2 8 4.8 -11.3042
595 4 28.8 6.4 3.2 -13.2052
596 3 30.4 8 4.8 -11.2323
597 1 32 6.4 3.2 -11.6433
598 3 33.6 8 4.8 -11.1544
599 1 35.2 6.4 3.2 -11.5723
600 3 36.8 8 4.8 -11.152
601 1 38.4 6.4 3.2 -11.5795
602 3 40 8 4.8 -11.1517
603 1 41.6 6.4 3.2 -11.6477
604 3 43.2 8 4.8 -11.2789
605 1 44.8 6.4 3.2 -11.666
606 3 46.4 8 4.8 -11.2037
607 1 48 6.4 3.2 -11.6999
608 3 49.6 8 4.8 -11.1586
609 1 0 9.6 3.2 -11.7253
610 4 1.6 11.2 4.8 -13.0342
611 4 3.2 9.6 3.2 -13.1113
612 2 4.8 11.2 4.8 -9.6974
613 4 6.4 9.6 3.2 -13.2356
614 3 8 11.2 4.8 -11.1092
615 1 9.6 9.6 3.2 -11.7685
616 4 11.2 11.2 4.8 -13.1491
617 1 12.8 9.6 3.2 -11.7625
618 3 14.4 11.2 4.8 -11.1523
619 4 16 9.6 3.2 -13.2201
620 4 17.6 11.2 4.8 -13.2012
621 4 19.2 9.6 3.2 -13.2637
622 4 20.8 11.2 4.8 -13.1577
623 4 22.4 9.6 3.2 -13.3474
624 4 24 11.2 4.8 -13.1691
625 1 25.6 9.6 3.2 -11.8315
626 3 27.2 11.2 4.8 -11.1616
627 1 28.8 9.6 3.2 -11.8315
628 3 30.4 11.2 4.8 -11.1953
629 4 32 9.6 3.2 -13.1772
630 4 33.6 11.2 4.8 -13.1664
631 1 35.2 9.6 3.2 -11.6545
632 3 36.8 11.2 4.8 -11.1944
633 4 38.4 9.6 3.2 -13.1923
634 3 40 11.2 4.8 -11.2001
635 1 41.6 9.6 3.2 -11.7573
636 3 43.2 11.2 4.8 -11.204
637 1 44.8 9.6 3.2 -11.7854
638 3 46.4 11.2 4.8 -11.1229
639 1 48 9.6 3.2 -11.7729
640 3 49.6 11.2 4.8 -11.1642
641 1 0 12.8 3.2 -11.723
642 4 1.6 14.4 4.8 -13.1523
643 1 3.2 12.8 3.2 -11.609
644 3 4.8 14.4 4.8 -11.1003
645 1 6.4 12.8 3.2 -11.6777
646 2 8 14.4 4.8 -9.7598
647 1 9.6 12.8 3.2 -11.6943
648 3 11.2 14.4 4.8 -11.0369
649 1 12.8 12.8 3.2 -11.7343
650 3 14.4 14.4 4.8 -11.2324
651 4 16 12.8 3.2 -13.2418
652 2 17.6 14.4 4.8 -9.69675
653 1 19.2 12.8 3.2 -11.6804
654 4 20.8 14.4 4.8 -13.1253
655 4 22.4 12.8 3.2 -13.1787
656 2 24 14.4 4.8 -9.6035
657 4 25.6 12.8 3.2 -13.249
658 2 27.2 14.4 4.8 -9.77742
659 1 28.8 12.8 3.2 -11.8551
660 3 30.4 14.4 4.8 -11.1972
661 4 32 12.8 3.2 -13.296
662 2 33.6 14.4 4.8 -9.78643
663 4 35.2 12.8 3.2 -13.1322
664 3 36.8 14.4 4.8 -11.2373
665 1 38.4 12.8 3.2 -11.6945
666 3 40 14.4 4.8 -11.0821
667 1 41.6 12.8 3.2 -11.6607
668 2 43.2 14.4 4.8 -9.62419
669 4 44.8 12.8 3.2 -13.1656
670 4 46.4 14.4 4.8 -13.1954
671 1 48 12.8 3.2 -11.7398
672 3 49.6 14.4 4.8 -11.1112
673 4 0 16 3.2 -13.2549
674 3 1.6 17.6 4.8 -11.0943
675 1 3.2 16 3.2 -11.771
676 4 4.8 17.6 4.8 -13.1814
677 4 6.4 16 3.2 -13.2493
678 4 8 17.6 4.8 -13.1366
679 1 9.6 16 3.2 -11.7454
680 2 11.2 17.6 4.8 -9.69857
681 1 12.8 16 3.2 -11.75
682 3 14.4 17.6 4.8 -11.2334
683 1 16 16 3.2 -11.725
684 3 17.6 17.6 4.8 -11.1891
685 1 19.2 16 3.2 -11.7353
686 3 20.8 17.6 4.8 -11.1822
687 1 22.4 16 3.2 -11.6139
688 4 24 17.6 4.8 -13.1046
689 1 25.6 16 3.2 -11.6617
690 3 27.2 17.6 4.8 -11.1114
691 1 28.8 16 3.2 -11.8389
692 3 30.4 17.6 4.8 -11.2413
693 1 32 16 3.2 -11.8155
694 3 33.6 17.6 4.8 -11.2411
695 4 35.2 16 3.2 -13.2783
696 3 36.8 17.6 4.8 -11.2007
697 4 38.4 16 3.2 -13.1699
698 3 40 17.6 4.8 -11.1625
699 1 41.6 16 3.2 -11.6417
700 4 43.2 17.6 4.8 -13.231
701 4 44.8 16 3.2 -13.2419
702 3 46.4 17.6 4.8 -11.1501
703 4 48 16 3.2 -13.219
704 4 49.6 17.6 4.8 -13.24
705 4 0 19.2 3.2 -13.2734
706 4 1.6 20.8 4.8 -13.1039
707 4 3.2 19.2 3.2 -13.2069
708 1 4.8 20.8 4.8 -11.6432
709 4 6.4 19.2 3.2 -13.2785
710 4 8 20.8 4.8 -13.2401
711 4 9.6 19.2 3.2 -13.2635
712 4 11.2 20.8 4.8 -13.1977
713 1 12.8 19.2 3.2 -11.7105
714 4 14.4 20.8 4.8 -13.1314
715 1 16 19.2 3.2 -11.7044
716 4 17.6 20.8 4.8 -13.1187
717 4 19.2 19.2 3.2 -13.2016
718 4 20.8 20.8 4.8 -13.2038
719 1 22.4 19.2 3.2 -11.6074
720 1 24 20.8 4.8 -11.5868
721 4 25.6 19.2 3.2 -13.0984
722 4 27.2 20.8 4.8 -13.1095
723 4 28.8 19.2 3.2 -13.325
724 2 30.4 20.8 4.8 -9.69443
725 1 32 19.2 3.2 -11.7985
726 3 33.6 20.8 4.8 -11.1224
727 1 35.2 19.2 3.2 -11.7634
728 3 36.8 20.8 4.8 -11.2019
729 1 38.4 19.2 3.2 -11.6952
730 3 40 20.8 4.8 -11.2404
731 4 41.6 19.2 3.2 -13.2473
732 3 43.2 20.8 4.8 -11.2721
733 4 44.8 19.2 3.2 -13.3552
734 3 46.4 20.8 4.8 -11.2349
735 1 48 19.2 3.2 -11.7094
736 3 49.6 20.8 4.8 -11.1579
737 4 0 22.4 3.2 -13.2232
738 4 1.6 24 4.8 -13.1779
739 4 3.2 22.4 3.2 -13.2161
740 4 4.8 24 4.8 -13.1503
741 3 6.4 22.4 3.2 -11.2626
742 4 8 24 4.8 -13.2663
743 2 9.6 22.4 3.2 -9.8555
744 1 11.2 24 4.8 -11.7441
745 4 12.8 22.4 3.2 -13.2033
746 1 14.4 24 4.8 -11.7251
747 2 16 22.4 3.2 -9.60301
748 1 17.6 24 4.8 -11.6922
749 4 19.2 22.4 3.2 -13.0897
750 1 20.8 24 4.8 -11.7058
751 2 22.4 22.4 3.2 -9.64196
752 1 24 24 4.8 -11.6282
753 4 25.6 22.4 3.2 -13.0614
754 1 27.2 24 4.8 -11.5273
755 4 28.8 22.4 3.2 -13.1555
756 4 30.4 24 4.8 -13.0791
757 1 32 22.4 3.2 -11.6692
758 2 33.6 24 4.8 -9.7253
759 1 35.2 22.4 3.2 -11.7256
760 3 36.8 24 4.8 -11.2316
761 4 38.4 22.4 3.2 -13.2233
762 3 40 24 4.8 -11.2773
763 1 41.6 22.4 3.2 -11.815
764 3 43.2 24 4.8 -11.202
765 1 44.8 22.4 3.2 -11.8147
766 3 46.4 24 4.8 -11.2037
767 1 48 22.4 3.2 -11.7619
768 3 49.6 24 4.8 -11.1185
769 4 0 25.6 3.2 -13.1357
771 4 3.2 25.6 3.2 -13.1081
773 4 6.4 25.6 3.2 -13.1098
775 3 9.6 25.6 3.2 -11.1536
777 3 12.8 25.6 3.2 -11.1234
779 3 16 25.6 3.2 -11.2063
781 3 19.2 25.6 3.2 -11.1615
783 2 22.4 25.6 3.2 -9.69485
785 2 25.6 25.6 3.2 -9.62479
787 4 28.8 25.6 3.2 -13.1655
789 4 32 25.6 3.2 -13.2306
791 4 35.2 25.6 3.2 -13.2903
793 1 38.4 25.6 3.2 -11.815
795 1 41.6 25.6 3.2 -11.78
797 1 44.8 25.6 3.2 -11.7532
799 1 48 25.6 3.2 -11.6285
770 2 1.6 27.2 4.8 -9.76123
801 4 0 28.8 3.2 -13.2945
772 1 4.8 27.2 4.8 -11.6314
803 3 3.2 28.8 3.2 -11.2551
774 1 8 27.2 4.8 -11.7278
805 3 6.4 28.8 3.2 -11.1199
776 1 11.2 27.2 4.8 -11.7997
807 2 9.6 28.8 3.2 -9.77281
778 1 14.4 27.2 4.8 -11.8414
809 3 12.8 28.8 3.2 -11.2405
780 1 17.6 27.2 4.8 -11.7977
811 3 16 28.8 3.2 -11.2426
782 1 20.8 27.2 4.8 -11.7381
813 3 19.2 28.8 3.2 -11.1127
784 1 24 27.2 4.8 -11.736
815 2 22.4 28.8 3.2 -9.79023
817 3 25.6 28.8 3.2 -11.1432
786 1 27.2 27.2 4.8 -11.6741
819 4 28.8 28.8 3.2 -13.2038
788 4 30.4 27.2 4.8 -13.2158
821 4 32 28.8 3.2 -13.2969
790 3 33.6 27.2 4.8 -11.2247
823 1 35.2 28.8 3.2 -11.7616
792 3 36.8 27.2 4.8 -11.1533
825 1 38.4 28.8 3.2 -11.7803
794 3 40 27.2 4.8 -11.1659
827 1 41.6 28.8 3.2 -11.6908
796 4 43.2 27.2 4.8 -13.0311
829 4 44.8 28.8 3.2 -13.1498
798 4 46.4 27.2 4.8 -13.0315
831 4 48 28.8 3.2 -13.1642
800 4 49.6 27.2 4.8 -13.0279
802 3 1.6 30.4 4.8 -11.2745
833 4 0 32 3.2 -13.2792
804 4 4.8 30.4 4.8 -13.2663
835 3 3.2 32 3.2 -11.0925
806 4 8 30.4 4.8 -13.3112
837 4 6.4 32 3.2 -13.2156
808 4 11.2 30.4 4.8 -13.2779
839 3 9.6 32 3.2 -11.1355
810 1 14.4 30.4 4.8 -11.8149
841 3 12.8 32 3.2 -11.2993
812 1 17.6 30.4 4.8 -11.7229
843 3 16 32 3.2 -11.2316
814 1 20.8 30.4 4.8 -11.6521
845 4 19.2 32 3.2 -13.1872
816 4 24 30.4 4.8 -13.2766
847 2 22.4 32 3.2 -9.73359
849 4 25.6 32 3.2 -13.1842
818 4 27.2 30.4 4.8 -13.2361
851 4 28.8 32 3.2 -13.0604
820 4 30.4 30.4 4.8 -13.1878
853 4 32 32 3.2 -13.2232
822 2 33.6 30.4 4.8 -9.73478
855 4 35.2 32 3.2 -13.112
824 4 36.8 30.4 4.8 -13.1297
857 4 38.4 32 3.2 -13.2725
826 3 40 30.4 4.8 -11.1469
859 4 41.6 32 3.2 -13.1515
828 4 43.2 30.4 4.8 -12.9985
861 4 44.8 32 3.2 -13.1783
830 2 46.4 30.4 4.8 -9.78441
863 4 48 32 3.2 -13.2675
832 3 49.6 30.4 4.8 -11.1886
834 4 1.6 33.6 4.8 -13.1904
865 4 0 35.2 3.2 -13.099
836 4 4.8 33.6 4.8 -13.232
867 4 3.2 35.2 3.2 -13.2138
838 2 8 33.6 4.8 -9.70212
869 4 6.4 35.2 3.2 -13.1531
840 4 11.2 33.6 4.8 -13.249
871 4 9.6 35.2 3.2 -13.1672
842 4 14.4 33.6 4.8 -13.2653
873 2 12.8 35.2 3.2 -9.76437
844 4 17.6 33.6 4.8 -13.2218
875 4 16 35.2 3.2 -13.2628
846 4 20.8 33.6 4.8 -13.2205
877 4 19.2 35.2 3.2 -13.2015
848 2 24 33.6 4.8 -9.6746
879 4 22.4 35.2 3.2 -13.2668
881 1 25.6 35.2 3.2 -11.6174
850 4 27.2 33.6 4.8 -13.0814
883 4 28.8 35.2 3.2 -13.1088
852 1 30.4 33.6 4.8 -11.6288
885 3 32 35.2 3.2 -11.1051
854 4 33.6 33.6 4.8 -13.1389
887 4 35.2 35.2 3.2 -13.1303
856 4 36.8 33.6 4.8 -13.1886
889 3 38.4 35.2 3.2 -11.1065
858 4 40 33.6 4.8 -13.3155
891 2 41.6 35.2 3.2 -9.7276
860 4 43.2 33.6 4.8 -13.1831
893 2 44.8 35.2 3.2 -9.71776
862 3 46.4 33.6 4.8 -11.2826
895 4 48 35.2 3.2 -13.2888
864 2 49.6 33.6 4.8 -9.76278
866 4 1.6 36.8 4.8 -13.2165
897 4 0 38.4 3.2 -13.1611
868 3 4.8 36.8 4.8 -11.223
899 3 3.2 38.4 3.2 -11.1078
870 4 8 36.8 4.8 -13.1299
901 4 6.4 38.4 3.2 -13.1732
872 2 11.2 36.8 4.8 -9.6745
903 4 9.6 38.4 3.2 -13.0246
874 4 14.4 36.8 4.8 -13.1237
905 1 12.8 38.4 3.2 -11.5854
876 4 17.6 36.8 4.8 -13.1999
907 4 16 38.4 3.2 -13.225
878 2 20.8 36.8 4.8 -9.69945
909 1 19.2 38.4 3.2 -11.7887
880 2 24 36.8 4.8 -9.73861
911 4 22.4 38.4 3.2 -13.2368
913 4 25.6 38.4 3.2 -13.211
882 4 27.2 36.8 4.8 -13.1766
915 3 28.8 38.4 3.2 -11.1539
884 1 30.4 36.8 4.8 -11.7695
917 3 32 38.4 3.2 -11.2735
886 1 33.6 36.8 4.8 -11.7727
919 3 35.2 38.4 3.2 -11.2037
888 1 36.8 36.8 4.8 -11.778
921 3 38.4 38.4 3.2 -11.2017
890 4 40 36.8 4.8 -13.2967
923 2 41.6 38.4 3.2 -9.70752
892 4 43.2 36.8 4.8 -13.2249
925 4 44.8 38.4 3.2 -13.1505
894 3 46.4 36.8 4.8 -11.2423
927 4 48 38.4 3.2 -13.1941
896 2 49.6 36.8 4.8 -9.84355
898 4 1.6 40 4.8 -13.229
929 4 0 41.6 3.2 -13.1474
900 3 4.8 40 4.8 -11.2777
931 4 3.2 41.6 3.2 -13.3194
902 4 8 40 4.8 -13.1332
933 4 6.4 41.6 3.2 -13.1602
904 4 11.2 40 4.8 -13.1637
935 4 9.6 41.6 3.2 -13.1776
906 3 14.4 40 4.8 -11.0656
937 4 12.8 41.6 3.2 -13.2354
908 3 17.6 40 4.8 -11.2723
939 4 16 41.6 3.2 -13.2935
910 3 20.8 40 4.8 -11.1573
941 1 19.2 41.6 3.2 -11.7787
912 4 24 40 4.8 -13.2551
943 4 22.4 41.6 3.2 -13.2561
945 3 25.6 41.6 3.2 -11.0631
914 1 27.2 40 4.8 -11.7439
947 3 28.8 41.6 3.2 -11.1666
916 1 30.4 40 4.8 -11.7789
949 3 32 41.6 3.2 -11.1999
918 1 33.6 40 4.8 -11.7798
951 3 35.2 41.6 3.2 -11.2005
920 1 36.8 40 4.8 -11.7974
953 4 38.4 41.6 3.2 -13.1957
922 1 40 40 4.8 -11.689
955 4 41.6 41.6 3.2 -13.2357
924 2 43.2 40 4.8 -9.76704
957 1 44.8 41.6 3.2 -11.726
926 3 46.4 40 4.8 -11.2593
959 1 48 41.6 3.2 -11.6961
928 3 49.6 40 4.8 -11.1882
930 3 1.6 43.2 4.8 -11.0752
961 1 0 44.8 3.2 -11.6599
932 3 4.8 43.2 4.8 -11.1953
963 1 3.2 44.8 3.2 -11.6138
934 2 8 43.2 4.8 -9.73334
965 1 6.4 44.8 3.2 -11.6631
936 3 11.2 43.2 4.8 -11.2106
967 4 9.6 44.8 3.2 -13.3011
938 4 14.4 43.2 4.8 -13.2493
969 4 12.8 44.8 3.2 -13.2056
940 3 17.6 43.2 4.8 -11.1618
971 1 16 44.8 3.2 -11.715
942 3 20.8 43.2 4.8 -11.1234
973 1 19.2 44.8 3.2 -11.7669
944 4 24 43.2 4.8 -13.248
975 1 22.4 44.8 3.2 -11.7463
977 4 25.6 44.8 3.2 -13.2104
946 1 27.2 43.2 4.8 -11.7286
979 3 28.8 44.8 3.2 -11.1247
948 1 30.4 43.2 4.8 -11.766
981 3 32 44.8 3.2 -11.2416
950 1 33.6 43.2 4.8 -11.7577
983 3 35.2 44.8 3.2 -11.0266
952 4 36.8 43.2 4.8 -13.2422
985 4 38.4 44.8 3.2 -13.2085
954 4 40 43.2 4.8 -13.1696
987 1 41.6 44.8 3.2 -11.7404
956 2 43.2 43.2 4.8 -9.7909
989 1 44.8 44.8 3.2 -11.7726
958 3 46.4 43.2 4.8 -11.1588
991 1 48 44.8 3.2 -11.7367
960 3 49.6 43.2 4.8 -11.2762
962 4 1.6 46.4 4.8 -13.1041
993 1 0 48 3.2 -11.702
964 2 4.8 46.4 4.8 -9.63968
995 1 3.2 48 3.2 -11.6554
966 4 8 46.4 4.8 -13.267
997 4 6.4 48 3.2 -13.2615
968 3 11.2 46.4 4.8 -11.2287
999 4 9.6 48 3.2 -13.3207
970 3 14.4 46.4 4.8 -11.0299
1001 1 12.8 48 3.2 -11.6626
972 2 17.6 46.4 4.8 -9.74909
1003 1 16 48 3.2 -11.7477
974 3 20.8 46.4 4.8 -11.1606
1005 1 19.2 48 3.2 -11.8256
976 4 24 46.4 4.8 -13.2399
1007 1 22.4 48 3.2 -11.7608
1009 4 25.6 48 3.2 -13.0907
978 1 27.2 46.4 4.8 -11.7339
1011 3 28.8 48 3.2 -11.1238
980 1 30.4 46.4 4.8 -11.8279
1013 2 32 48 3.2 -9.68925
982 4 33.6 46.4 4.8 -13.2326
1015 4 35.2 48 3.2 -13.119
984 1 36.8 46.4 4.8 -11.6534
1017 2 38.4 48 3.2 -9.69249
986 4 40 46.4 4.8 -13.1337
1019 1 41.6 48 3.2 -11.7309
988 3 43.2 46.4 4.8 -11.1146
1021 1 44.8 48 3.2 -11.7503
990 4 46.4 46.4 4.8 -13.1657
1023 1 48 48 3.2 -11.7365
992 2 49.6 46.4 4.8 -9.66513
994 3 1.6 49.6 4.8 -11.1218
996 3 4.8 49.6 4.8 -11.3027
998 3 8 49.6 4.8 -11.2521
1000 3 11.2 49.6 4.8 -11.1414
1002 4 14.4 49.6 4.8 -13.1131
1004 3 17.6 49.6 4.8 -11.1635
1006 3 20.8 49.6 4.8 -11.3082
1008 2 24 49.6 4.8 -9.707
1010 4 27.2 49.6 4.8 -13.2452
1012 1 30.4 49.6 4.8 -11.711
1014 1 33.6 49.6 4.8 -11.6943
1016 4 36.8 49.6 4.8 -13.1005
1018 4 40 49.6 4.8 -13.2601
1020 3 43.2 49.6 4.8 -11.2196
1022 3 46.4 49.6 4.8 -11.2623
1024 3 49.6 49.6 4.8 -11.2723
1025 1 0 0 6.4 -11.7402
1026 4 1.6 1.6 8 -13.1013
1027 1 3.2 0 6.4 -11.7453
1028 3 4.8 1.6 8 -11.2504
1029 4 6.4 0 6.4 -13.3605
1030 3 8 1.6 8 -11.206
1031 4 9.6 0 6.4 -13.2656
1032 4 11.2 1.6 8 -13.2358
1033 4 12.8 0 6.4 -13.1435
1034 2 14.4 1.6 8 -9.76201
1035 1 16 0 6.4 -11.7188
1036 3 17.6 1.6 8 -11.1609
1037 1 19.2 0 6.4 -11.8318
1038 4 20.8 1.6 8 -13.2394
1039 4 22.4 0 6.4 -13.2273
1040 4 24 1.6 8 -13.1743
1041 4 25.6 0 6.4 -13.2288
1042 4 27.2 1.6 8 -13.2527
1043 2 28.8 0 6.4 -9.73258
1044 1 30.4 1.6 8 -11.6419
1045 3 32 0 6.4 -11.1198
1046 1 33.6 1.6 8 -11.6447
1047 4 35.2 0 6.4 -13.1952
1048 4 36.8 1.6 8 -13.2091
1049 4 38.4 0 6.4 -13.2112
1050 4 40 1.6 8 -13.2737
1051 4 41.6 0 6.4 -13.2499
1052 4 43.2 1.6 8 -13.1986
1053 4 44.8 0 6.4 -13.351
1054 4 46.4 1.6 8 -13.1918
1055 4 48 0 6.4 -13.2979
1056 3 49.6 1.6 8 -11.1397
1057 4 0 3.2 6.4 -13.1796
1058 4 1.6 4.8 8 -13.1139
1059 4 3.2 3.2 6.4 -13.1895
1060 4 4.8 4.8 8 -13.1979
1061 4 6.4 3.2 6.4 -13.3165
1062 3 8 4.8 8 -11.1445
1063 4 9.6 3.2 6.4 -13.2939
1064 3 11.2 4.8 8 -11.1909
1065 4 12.8 3.2 6.4 -13.2953
1066 3 14.4 4.8 8 -11.1907
1067 1 16 3.2 6.4 -11.7549
1068 3 17.6 4.8 8 -11.1537
1069 4 19.2 3.2 6.4 -13.2552
1070 4 20.8 4.8 8 -13.1088
1071 4 22.4 3.2 6.4 -13.2167
1072 4 24 4.8 8 -13.155
1073 1 25.6 3.2 6.4 -11.6692
1074 4 27.2 4.8 8 -13.2629
1075 4 28.8 3.2 6.4 -13.1951
1076 4 30.4 4.8 8 -13.1746
1077 4 32 3.2 6.4 -13.1379
1078 4 33.6 4.8 8 -13.0899
1079 4 35.2 3.2 6.4 -13.2583
1080 3 36.8 4.8 8 -11.1844
1081 3 38.4 3.2 6.4 -11.1836
1082 4 40 4.8 8 -13.2524
1083 4 41.6 3.2 6.4 -13.3022
1084 4 43.2 4.8 8 -13.1506
1085 4 44.8 3.2 6.4 -13.133
1086 2 46.4 4.8 8 -9.63967
1087 1 48 3.2 6.4 -11.6934
1088 4 49.6 4.8 8 -13.2335
1089 4 0 6.4 6.4 -13.1997
1090 4 1.6 8 8 -13.1855
1091 4 3.2 6.4 6.4 -13.0625
1092 4 4.8 8 8 -13.1446
1093 4 6.4 6.4 6.4 -13.1754
1094 2 8 8 8 -9.73386
1095 1 9.6 6.4 6.4 -11.7207
1096 4 11.2 8 8 -13.0694
1097 1 12.8 6.4 6.4 -11.7032
1098 4 14.4 8 8 -13.0304
1099 4 16 6.4 6.4 -13.1819
1100 3 17.6 8 8 -11.1593
1101 4 19.2 6.4 6.4 -13.2455
1102 4 20.8 8 8 -13.0758
1103 1 22.4 6.4 6.4 -11.678