ITEM: TIMESTEP
0
ITEM: NUMBER OF ATOMS
8192
ITEM: BOX BOUNDS pp pp pp
0.0000000000000000e+00 5.1200000000000003e+01
0.0000000000000000e+00 5.1200000000000003e+01
0.0000000000000000e+00 5.1200000000000003e+01
ITEM: ATOMS id type x y z c_eng
1 1 0 0 0 -11.6872
2 4 1.6 1.6 1.6 -13.1595
3 4 3.2 0 0 -13.1867
4 3 4.8 1.6 1.6 -11.0275
5 1 6.4 0 0 -11.6717
6 2 8 1.6 1.6 -9.71939
7 1 9.6 0 0 -11.7248
8 4 11.2 1.6 1.6 -13.0295
9 1 12.8 0 0 -11.6739
10 4 14.4 1.6 1.6 -13.1537
11 1 16 0 0 -11.7105
12 3 17.6 1.6 1.6 -11.109
13 1 19.2 0 0 -11.8239
14 3 20.8 1.6 1.6 -11.2381
15 1 22.4 0 0 -11.7928
16 3 24 1.6 1.6 -11.125
17 1 25.6 0 0 -11.6146
18 2 27.2 1.6 1.6 -9.70231
19 2 28.8 0 0 -9.76682
20 1 30.4 1.6 1.6 -11.6745
21 3 32 0 0 -11.1826
22 4 33.6 1.6 1.6 -13.2355
23 4 35.2 0 0 -13.2213
24 3 36.8 1.6 1.6 -11.1678
25 4 38.4 0 0 -13.332
26 2 40 1.6 1.6 -9.84318
27 4 41.6 0 0 -13.2568
28 3 43.2 1.6 1.6 -11.2343
29 1 44.8 0 0 -11.6514
30 2 46.4 1.6 1.6 -9.65363
31 1 48 0 0 -11.713
32 3 49.6 1.6 1.6 -11.1994
33 1 0 3.2 0 -11.7394
34 3 1.6 4.8 1.6 -11.1201
35 4 3.2 3.2 0 -13.2332
36 4 4.8 4.8 1.6 -13.1915
37 1 6.4 3.2 0 -11.73
38 3 8 4.8 1.6 -11.1204
39 4 9.6 3.2 0 -13.2205
40 4 11.2 4.8 1.6 -13.1141
41 1 12.8 3.2 0 -11.683
42 3 14.4 4.8 1.6 -11.1117
43 4 16 3.2 0 -13.2828
44 4 17.6 4.8 1.6 -13.2316
45 4 19.2 3.2 0 -13.3073
46 3 20.8 4.8 1.6 -11.2619
47 1 22.4 3.2 0 -11.8315
48 3 24 4.8 1.6 -11.2673
49 1 25.6 3.2 0 -11.738
50 3 27.2 4.8 1.6 -11.1123
51 4 28.8 3.2 0 -13.238
52 4 30.4 4.8 1.6 -13.1629
53 3 32 3.2 0 -11.095
54 4 33.6 4.8 1.6 -13.1917
55 4 35.2 3.2 0 -13.1848
56 4 36.8 4.8 1.6 -13.1665
57 4 38.4 3.2 0 -13.1946
58 4 40 4.8 1.6 -13.2384
59 4 41.6 3.2 0 -13.2863
60 3 43.2 4.8 1.6 -11.1976
61 1 44.8 3.2 0 -11.7537
62 3 46.4 4.8 1.6 -11.0838
63 1 48 3.2 0 -11.7843
64 3 49.6 4.8 1.6 -11.2435
65 1 0 6.4 0 -11.8123
66 3 1.6 8 1.6 -11.1244
67 1 3.2 6.4 0 -11.7734
68 3 4.8 8 1.6 -11.0862
69 1 6.4 6.4 0 -11.7801
70 3 8 8 1.6 -11.2045
71 1 9.6 6.4 0 -11.7977
72 3 11.2 8 1.6 -11.1167
73 1 12.8 6.4 0 -11.8062
74 3 14.4 8 1.6 -11.269
75 4 16 6.4 0 -13.3305
76 3 17.6 8 1.6 -11.2929
77 4 19.2 6.4 0 -13.295
78 3 20.8 8 1.6 -11.3272
79 4 22.4 6.4 0 -13.3103
80 3 24 8 1.6 -11.267
81 4 25.6 6.4 0 -13.2945
82 3 27.2 8 1.6 -11.2696
83 4 28.8 6.4 0 -13.2355
84 2 30.4 8 1.6 -9.76208
85 4 32 6.4 0 -13.2334
86 3 33.6 8 1.6 -11.1753
87 4 35.2 6.4 0 -13.2219
88 3 36.8 8 1.6 -11.1479
89 4 38.4 6.4 0 -13.2324
90 3 40 8 1.6 -11.273
91 4 41.6 6.4 0 -13.3633
92 3 43.2 8 1.6 -11.2715
93 1 44.8 6.4 0 -11.7257
94 3 46.4 8 1.6 -11.1656
95 1 48 6.4 0 -11.7469
96 3 49.6 8 1.6 -11.2048
97 1 0 9.6 0 -11.7706
98 2 1.6 11.2 1.6 -9.66171
99 1 3.2 9.6 0 -11.7178
100 4 4.8 11.2 1.6 -13.1489
101 1 6.4 9.6 0 -11.7932
102 3 8 11.2 1.6 -11.0733
103 1 9.6 9.6 0 -11.8438
104 2 11.2 11.2 1.6 -9.72682
105 4 12.8 9.6 0 -13.2474
106 4 14.4 11.2 1.6 -13.1567
107 1 16 9.6 0 -11.7252
108 3 17.6 11.2 1.6 -11.1799
109 4 19.2 9.6 0 -13.2456
110 3 20.8 11.2 1.6 -11.2543
111 1 22.4 9.6 0 -11.7517
112 2 24 11.2 1.6 -9.807
113 1 25.6 9.6 0 -11.7139
114 3 27.2 11.2 1.6 -11.1912
115 4 28.8 9.6 0 -13.1823
116 3 30.4 11.2 1.6 -11.1371
117 4 32 9.6 0 -13.3004
118 4 33.6 11.2 1.6 -13.2809
119 4 35.2 9.6 0 -13.1449
120 2 36.8 11.2 1.6 -9.78671
121 1 38.4 9.6 0 -11.7385
122 3 40 11.2 1.6 -11.2028
123 1 41.6 9.6 0 -11.8391
124 2 43.2 11.2 1.6 -9.65339
125 1 44.8 9.6 0 -11.7502
126 3 46.4 11.2 1.6 -11.1609
127 1 48 9.6 0 -11.7505
128 2 49.6 11.2 1.6 -9.75371
129 4 0 12.8 0 -13.1463
130 4 1.6 14.4 1.6 -13.037
131 1 3.2 12.8 0 -11.6875
132 3 4.8 14.4 1.6 -11.0699
133 1 6.4 12.8 0 -11.7437
134 4 8 14.4 1.6 -13.11
135 1 9.6 12.8 0 -11.6017
136 4 11.2 14.4 1.6 -13.0567
137 1 12.8 12.8 0 -11.6081
138 3 14.4 14.4 1.6 -11.0553
139 1 16 12.8 0 -11.6697
140 2 17.6 14.4 1.6 -9.75657
141 4 19.2 12.8 0 -13.267
142 4 20.8 14.4 1.6 -13.274
143 4 22.4 12.8 0 -13.2166
144 2 24 14.4 1.6 -9.6735
145 1 25.6 12.8 0 -11.6403
146 2 27.2 14.4 1.6 -9.66818
147 1 28.8 12.8 0 -11.639
148 4 30.4 14.4 1.6 -13.1386
149 2 32 12.8 0 -9.67185
150 4 33.6 14.4 1.6 -13.1394
151 4 35.2 12.8 0 -13.1961
152 3 36.8 14.4 1.6 -11.1803
153 1 38.4 12.8 0 -11.7519
154 3 40 14.4 1.6 -11.2978
155 1 41.6 12.8 0 -11.7761
156 4 43.2 14.4 1.6 -13.1547
157 1 44.8 12.8 0 -11.766
158 3 46.4 14.4 1.6 -11.1549
159 1 48 12.8 0 -11.7856
160 4 49.6 14.4 1.6 -13.0215
161 1 0 16 0 -11.6243
162 3 1.6 17.6 1.6 -11.0327
163 4 3.2 16 0 -13.2532
164 4 4.8 17.6 1.6 -13.2818
165 4 6.4 16 0 -13.2497
166 3 8 17.6 1.6 -11.0741
167 1 9.6 16 0 -11.5663
168 3 11.2 17.6 1.6 -11.1807
169 4 12.8 16 0 -13.2122
170 4 14.4 17.6 1.6 -13.2011
171 1 16 16 0 -11.5939
172 4 17.6 17.6 1.6 -13.0801
173 1 19.2 16 0 -11.7295
174 3 20.8 17.6 1.6 -11.1077
175 4 22.4 16 0 -13.2329
176 4 24 17.6 1.6 -13.2059
177 4 25.6 16 0 -13.1561
178 4 27.2 17.6 1.6 -13.1172
179 4 28.8 16 0 -13.1192
180 2 30.4 17.6 1.6 -9.70297
181 4 32 16 0 -13.196
182 3 33.6 17.6 1.6 -11.1935
183 4 35.2 16 0 -13.2748
184 3 36.8 17.6 1.6 -11.2313
185 4 38.4 16 0 -13.3113
186 3 40 17.6 1.6 -11.2274
187 4 41.6 16 0 -13.3077
188 3 43.2 17.6 1.6 -11.1194
189 1 44.8 16 0 -11.7902
190 2 46.4 17.6 1.6 -9.71225
191 1 48 16 0 -11.6495
192 4 49.6 17.6 1.6 -12.8613
193 1 0 19.2 0 -11.7593
194 3 1.6 20.8 1.6 -11.2722
195 1 3.2 19.2 0 -11.7944
196 3 4.8 20.8 1.6 -11.1088
197 4 6.4 19.2 0 -13.2233
198 2 8 20.8 1.6 -9.73389
199 4 9.6 19.2 0 -13.1975
200 4 11.2 20.8 1.6 -13.1357
201 3 12.8 19.2 0 -11.0749
202 4 14.4 20.8 1.6 -13.1957
203 1 16 19.2 0 -11.6022
204 2 17.6 20.8 1.6 -9.74555
205 4 19.2 19.2 0 -13.2505
206 4 20.8 20.8 1.6 -13.1528
207 4 22.4 19.2 0 -13.2043
208 3 24 20.8 1.6 -11.095
209 4 25.6 19.2 0 -13.1619
210 4 27.2 20.8 1.6 -13.1318
211 4 28.8 19.2 0 -13.1955
212 3 30.4 20.8 1.6 -11.223
213 4 32 19.2 0 -13.2638
214 3 33.6 20.8 1.6 -11.1965
215 4 35.2 19.2 0 -13.236
216 3 36.8 20.8 1.6 -11.1192
217 1 38.4 19.2 0 -11.6936
218 4 40 20.8 1.6 -13.0529
219 1 41.6 19.2 0 -11.7689
220 3 43.2 20.8 1.6 -11.1607
221 1 44.8 19.2 0 -11.8121
222 3 46.4 20.8 1.6 -11.2395
223 1 48 19.2 0 -11.7147
224 3 49.6 20.8 1.6 -11.1999
225 4 0 22.4 0 -13.2782
226 4 1.6 24 1.6 -13.1464
227 4 3.2 22.4 0 -13.2232
228 4 4.8 24 1.6 -13.1394
229 4 6.4 22.4 0 -13.1618
230 4 8 24 1.6 -13.1794
231 4 9.6 22.4 0 -13.1797
232 4 11.2 24 1.6 -13.2093
233 4 12.8 22.4 0 -13.1861
234 4 14.4 24 1.6 -13.1759
235 2 16 22.4 0 -9.76173
236 4 17.6 24 1.6 -13.3477
237 3 19.2 22.4 0 -11.1733
238 1 20.8 24 1.6 -11.6311
239 4 22.4 22.4 0 -13.1927
240 4 24 24 1.6 -13.185
241 4 25.6 22.4 0 -13.2903
242 4 27.2 24 1.6 -13.2167
243 4 28.8 22.4 0 -13.1933
244 2 30.4 24 1.6 -9.74058
245 4 32 22.4 0 -13.2075
246 2 33.6 24 1.6 -9.69882
247 1 35.2 22.4 0 -11.7024
248 2 36.8 24 1.6 -9.68442
249 1 38.4 22.4 0 -11.6378
250 2 40 24 1.6 -9.61275
251 1 41.6 22.4 0 -11.6864
252 3 43.2 24 1.6 -11.2358
253 1 44.8 22.4 0 -11.7932
254 3 46.4 24 1.6 -11.1189
255 1 48 22.4 0 -11.7617
256 3 49.6 24 1.6 -11.2023
257 4 0 25.6 0 -13.2377
259 4 3.2 25.6 0 -13.1458
261 4 6.4 25.6 0 -13.1458
263 3 9.6 25.6 0 -11.2722
265 4 12.8 25.6 0 -13.2071
267 4 16 25.6 0 -13.2425
269 2 19.2 25.6 0 -9.75848
271 2 22.4 25.6 0 -9.66648
273 3 25.6 25.6 0 -11.2349
275 4 28.8 25.6 0 -13.3078
277 1 32 25.6 0 -11.7425
279 4 35.2 25.6 0 -13.2749
281 1 38.4 25.6 0 -11.7488
283 1 41.6 25.6 0 -11.7412
285 1 44.8 25.6 0 -11.6997
287 1 48 25.6 0 -11.6449
258 4 1.6 27.2 1.6 -13.2255
289 2 0 28.8 0 -9.73101
260 4 4.8 27.2 1.6 -13.1745
291 2 3.2 28.8 0 -9.76815
262 4 8 27.2 1.6 -13.3001
293 4 6.4 28.8 0 -13.1663
264 4 11.2 27.2 1.6 -13.3323
295 3 9.6 28.8 0 -11.2453
266 4 14.4 27.2 1.6 -13.2331
297 3 12.8 28.8 0 -11.2197
268 4 17.6 27.2 1.6 -13.3243
299 3 16 28.8 0 -11.2256
270 4 20.8 27.2 1.6 -13.1736
301 3 19.2 28.8 0 -11.2239
272 4 24 27.2 1.6 -13.2164
303 2 22.4 28.8 0 -9.70763
305 3 25.6 28.8 0 -11.2468
274 4 27.2 27.2 1.6 -13.2561
307 4 28.8 28.8 0 -13.2756
276 3 30.4 27.2 1.6 -11.1514
309 1 32 28.8 0 -11.7979
278 3 33.6 27.2 1.6 -11.2769
311 1 35.2 28.8 0 -11.7792
280 3 36.8 27.2 1.6 -11.1616
313 1 38.4 28.8 0 -11.7785
282 3 40 27.2 1.6 -11.2749
315 4 41.6 28.8 0 -13.3041
284 3 43.2 27.2 1.6 -11.2959
317 4 44.8 28.8 0 -13.2963
286 2 46.4 27.2 1.6 -9.73087
319 4 48 28.8 0 -13.1955
288 3 49.6 27.2 1.6 -11.1569
290 4 1.6 30.4 1.6 -13.1875
321 4 0 32 0 -13.1789
292 4 4.8 30.4 1.6 -13.264
323 4 3.2 32 0 -13.2384
294 4 8 30.4 1.6 -13.2646
325 3 6.4 32 0 -11.1746
296 4 11.2 30.4 1.6 -13.2591
327 2 9.6 32 0 -9.73652
298 1 14.4 30.4 1.6 -11.6489
329 4 12.8 32 0 -13.2053
300 4 17.6 30.4 1.6 -13.3183
331 3 16 32 0 -11.0996
302 1 20.8 30.4 1.6 -11.6401
333 3 19.2 32 0 -11.2136
304 1 24 30.4 1.6 -11.5732
335 4 22.4 32 0 -13.0879
337 1 25.6 32 0 -11.6488
306 2 27.2 30.4 1.6 -9.67164
339 4 28.8 32 0 -13.1725
308 2 30.4 30.4 1.6 -9.74911
341 1 32 32 0 -11.8118
310 3 33.6 30.4 1.6 -11.2366
343 4 35.2 32 0 -13.2352
312 2 36.8 30.4 1.6 -9.72465
345 4 38.4 32 0 -13.1458
314 3 40 30.4 1.6 -11.1976
347 1 41.6 32 0 -11.7306
316 3 43.2 30.4 1.6 -11.2589
349 3 44.8 32 0 -11.1129
318 4 46.4 30.4 1.6 -13.2801
351 4 48 32 0 -13.2926
320 2 49.6 30.4 1.6 -9.74067
322 4 1.6 33.6 1.6 -13.1965
353 4 0 35.2 0 -13.1978
324 4 4.8 33.6 1.6 -13.2276
355 3 3.2 35.2 0 -11.1349
326 4 8 33.6 1.6 -13.1757
357 2 6.4 35.2 0 -9.82102
328 4 11.2 33.6 1.6 -13.2681
359 4 9.6 35.2 0 -13.2849
330 1 14.4 33.6 1.6 -11.6044
361 3 12.8 35.2 0 -11.0382
332 4 17.6 33.6 1.6 -13.271
363 4 16 35.2 0 -13.2275
334 4 20.8 33.6 1.6 -13.1296
365 1 19.2 35.2 0 -11.6908
336 2 24 33.6 1.6 -9.61054
367 1 22.4 35.2 0 -11.6721
369 4 25.6 35.2 0 -13.1823
338 4 27.2 33.6 1.6 -13.19
371 1 28.8 35.2 0 -11.7348
340 3 30.4 33.6 1.6 -11.1164
373 1 32 35.2 0 -11.7469
342 3 33.6 33.6 1.6 -11.2578
375 4 35.2 35.2 0 -13.2347
344 4 36.8 33.6 1.6 -13.1937
377 1 38.4 35.2 0 -11.6216
346 2 40 33.6 1.6 -9.59979
379 1 41.6 35.2 0 -11.5828
348 4 43.2 33.6 1.6 -13.1259
381 4 44.8 35.2 0 -13.2193
350 2 46.4 33.6 1.6 -9.87069
383 4 48 35.2 0 -13.2172
352 3 49.6 33.6 1.6 -11.2437
354 4 1.6 36.8 1.6 -13.1493
385 1 0 38.4 0 -11.5994
356 4 4.8 36.8 1.6 -13.1834
387 4 3.2 38.4 0 -13.229
358 2 8 36.8 1.6 -9.7325
389 4 6.4 38.4 0 -13.1466
360 3 11.2 36.8 1.6 -11.2509
391 4 9.6 38.4 0 -13.2282
362 4 14.4 36.8 1.6 -13.2323
393 1 12.8 38.4 0 -11.6985
364 3 17.6 36.8 1.6 -11.1179
395 1 16 38.4 0 -11.7828
366 3 20.8 36.8 1.6 -11.1221
397 1 19.2 38.4 0 -11.7798
368 4 24 36.8 1.6 -13.0963
399 1 22.4 38.4 0 -11.5986
401 1 25.6 38.4 0 -11.6069
370 2 27.2 36.8 1.6 -9.6427
403 1 28.8 38.4 0 -11.5799
372 4 30.4 36.8 1.6 -13.1329
405 1 32 38.4 0 -11.5833
374 4 33.6 36.8 1.6 -13.2764
407 4 35.2 38.4 0 -13.1136
376 4 36.8 36.8 1.6 -13.1664
409 4 38.4 38.4 0 -13.2033
378 4 40 36.8 1.6 -13.1882
411 4 41.6 38.4 0 -13.1267
380 4 43.2 36.8 1.6 -13.2276
413 4 44.8 38.4 0 -13.3168
382 3 46.4 36.8 1.6 -11.2753
415 1 48 38.4 0 -11.6954
384 2 49.6 36.8 1.6 -9.76465
386 3 1.6 40 1.6 -11.2261
417 1 0 41.6 0 -11.6914
388 2 4.8 40 1.6 -9.69954
419 4 3.2 41.6 0 -13.2334
390 4 8 40 1.6 -13.2022
421 4 6.4 41.6 0 -13.2025
392 3 11.2 40 1.6 -11.151
423 4 9.6 41.6 0 -13.2571
394 3 14.4 40 1.6 -11.2676
425 1 12.8 41.6 0 -11.7621
396 3 17.6 40 1.6 -11.2701
427 1 16 41.6 0 -11.7975
398 3 20.8 40 1.6 -11.1897
429 1 19.2 41.6 0 -11.7345
400 4 24 40 1.6 -13.0049
431 1 22.4 41.6 0 -11.6539
433 4 25.6 41.6 0 -13.1436
402 4 27.2 40 1.6 -13.0856
435 4 28.8 41.6 0 -13.1486
404 4 30.4 40 1.6 -13.1125
437 4 32 41.6 0 -13.1065
406 4 33.6 40 1.6 -13.1576
439 4 35.2 41.6 0 -13.2112
408 1 36.8 40 1.6 -11.7127
441 3 38.4 41.6 0 -11.1666
410 4 40 40 1.6 -13.2575
443 4 41.6 41.6 0 -13.2523
412 4 43.2 40 1.6 -13.2829
445 4 44.8 41.6 0 -13.3479
414 3 46.4 40 1.6 -11.3548
447 1 48 41.6 0 -11.7224
416 3 49.6 40 1.6 -11.1122
418 2 1.6 43.2 1.6 -9.69608
449 1 0 44.8 0 -11.7675
420 4 4.8 43.2 1.6 -13.2033
451 4 3.2 44.8 0 -13.3181
422 3 8 43.2 1.6 -11.0784
453 1 6.4 44.8 0 -11.7575
424 4 11.2 43.2 1.6 -13.1951
455 1 9.6 44.8 0 -11.7978
426 3 14.4 43.2 1.6 -11.1201
457 1 12.8 44.8 0 -11.7799
428 4 17.6 43.2 1.6 -13.1133
459 1 16 44.8 0 -11.7935
430 3 20.8 43.2 1.6 -11.1585
461 1 19.2 44.8 0 -11.7799
432 2 24 43.2 1.6 -9.76435
463 1 22.4 44.8 0 -11.7976
465 4 25.6 44.8 0 -13.2636
434 4 27.2 43.2 1.6 -13.3266
467 4 28.8 44.8 0 -13.2265
436 4 30.4 43.2 1.6 -13.2637
469 4 32 44.8 0 -13.2905
438 4 33.6 43.2 1.6 -13.3793
471 3 35.2 44.8 0 -11.1967
440 4 36.8 43.2 1.6 -13.2708
473 4 38.4 44.8 0 -13.288
442 4 40 43.2 1.6 -13.2879
475 4 41.6 44.8 0 -13.246
444 3 43.2 43.2 1.6 -11.2056
477 4 44.8 44.8 0 -13.2348
446 2 46.4 43.2 1.6 -9.81403
479 4 48 44.8 0 -13.2193
448 4 49.6 43.2 1.6 -13.1068
450 3 1.6 46.4 1.6 -11.1865
481 4 0 48 0 -13.2788
452 3 4.8 46.4 1.6 -11.2334
483 4 3.2 48 0 -13.3036
454 3 8 46.4 1.6 -11.2432
485 1 6.4 48 0 -11.755
456 3 11.2 46.4 1.6 -11.1642
487 1 9.6 48 0 -11.8121
458 3 14.4 46.4 1.6 -11.1662
489 1 12.8 48 0 -11.7979
460 3 17.6 46.4 1.6 -11.0862
491 1 16 48 0 -11.7245
462 3 20.8 46.4 1.6 -11.1651
493 1 19.2 48 0 -11.7801
464 4 24 46.4 1.6 -13.2026
495 1 22.4 48 0 -11.7218
497 1 25.6 48 0 -11.5842
466 4 27.2 46.4 1.6 -13.1829
499 2 28.8 48 0 -9.73034
468 4 30.4 46.4 1.6 -13.236
501 2 32 48 0 -9.76611
470 4 33.6 46.4 1.6 -13.3272
503 4 35.2 48 0 -13.2764
472 4 36.8 46.4 1.6 -13.2691
505 3 38.4 48 0 -11.116
474 4 40 46.4 1.6 -13.1713
507 4 41.6 48 0 -13.1793
476 2 43.2 46.4 1.6 -9.70336
509 1 44.8 48 0 -11.5522
478 4 46.4 46.4 1.6 -13.0278
511 4 48 48 0 -13.1203
480 3 49.6 46.4 1.6 -11.1859
482 4 1.6 49.6 1.6 -13.1557
484 3 4.8 49.6 1.6 -11.1633
486 3 8 49.6 1.6 -11.1651
488 3 11.2 49.6 1.6 -11.2031
490 3 14.4 49.6 1.6 -11.0703
492 4 17.6 49.6 1.6 -13.191
494 3 20.8 49.6 1.6 -11.0824
496 4 24 49.6 1.6 -13.0422
498 4 27.2 49.6 1.6 -13.0744
500 1 30.4 49.6 1.6 -11.6695
502 4 33.6 49.6 1.6 -13.2043
504 4 36.8 49.6 1.6 -13.3046
506 3 40 49.6 1.6 -11.1962
508 2 43.2 49.6 1.6 -9.65717
510 4 46.4 49.6 1.6 -13.0179
512 3 49.6 49.6 1.6 -11.1851
513 4 0 0 3.2 -13.2494
514 3 1.6 1.6 4.8 -11.1533
515 1 3.2 0 3.2 -11.6877
516 4 4.8 1.6 4.8 -13.0567
517 1 6.4 0 3.2 -11.7537
518 3 8 1.6 4.8 -11.1607
519 1 9.6 0 3.2 -11.7835
520 3 11.2 1.6 4.8 -11.2399
521 4 12.8 0 3.2 -13.2723
522 3 14.4 1.6 4.8 -11.2342
523 4 16 0 3.2 -13.2893
524 2 17.6 1.6 4.8 -9.69514
525 4 19.2 0 3.2 -13.2244
526 4 20.8 1.6 4.8 -13.1567
527 1 22.4 0 3.2 -11.7055
528 3 24 1.6 4.8 -11.0743
529 1 25.6 0 3.2 -11.7173
530 2 27.2 1.6 4.8 -9.73658
531 2 28.8 0 3.2 -9.66882
532 4 30.4 1.6 4.8 -13.1702
533 2 32 0 3.2 -9.70389
534 4 33.6 1.6 4.8 -13.2343
535 4 35.2 0 3.2 -13.2253
536 3 36.8 1.6 4.8 -11.25
537 4 38.4 0 3.2 -13.3141
538 3 40 1.6 4.8 -11.3003
539 4 41.6 0 3.2 -13.2971
540 3 43.2 1.6 4.8 -11.1958
541 1 44.8 0 3.2 -11.657
542 4 46.4 1.6 4.8 -13.1054
543 4 48 0 3.2 -13.2843
544 3 49.6 1.6 4.8 -11.2621
545 1 0 3.2 3.2 -11.8149
546 3 1.6 4.8 4.8 -11.2004
547 4 3.2 3.2 3.2 -13.2464
548 3 4.8 4.8 4.8 -11.158
549 1 6.4 3.2 3.2 -11.7362
550 3 8 4.8 4.8 -11.1582
551 4 9.6 3.2 3.2 -13.2499
552 3 11.2 4.8 4.8 -11.1201
553 1 12.8 3.2 3.2 -11.6868
554 3 14.4 4.8 4.8 -11.2412
555 1 16 3.2 3.2 -11.7006
556 4 17.6 4.8 4.8 -13.1599
557 1 19.2 3.2 3.2 -11.6931
558 3 20.8 4.8 4.8 -11.1108
559 1 22.4 3.2 3.2 -11.7616
560 4 24 4.8 4.8 -13.1523
561 1 25.6 3.2 3.2 -11.6928
562 4 27.2 4.8 4.8 -13.1514
563 4 28.8 3.2 3.2 -13.1803
564 3 30.4 4.8 4.8 -11.136
565 4 32 3.2 3.2 -13.2019
566 3 33.6 4.8 4.8 -11.216
567 4 35.2 3.2 3.2 -13.2809
568 3 36.8 4.8 4.8 -11.2228
569 4 38.4 3.2 3.2 -13.2873
570 3 40 4.8 4.8 -11.2402
571 1 41.6 3.2 3.2 -11.8167
572 3 43.2 4.8 4.8 -11.1994
573 1 44.8 3.2 3.2 -11.6787
574 4 46.4 4.8 4.8 -13.1056
575 1 48 3.2 3.2 -11.7193
576 3 49.6 4.8 4.8 -11.1628
577 1 0 6.4 3.2 -11.7802
578 4 1.6 8 4.8 -13.0967
579 1 3.2 6.4 3.2 -11.7345
580 3 4.8 8 4.8 -11.1249
581 1 6.4 6.4 3.2 -11.7343
582 4 8 8 4.8 -13.0232
583 1 9.6 6.4 3.2 -11.6907
584 4 11.2 8 4.8 -13.0206
585 1 12.8 6.4 3.2 -11.7366
586 3 14.4 8 4.8 -11.1592
587 4 16 6.4 3.2 -13.3011
588 3 17.6 8 4.8 -11.1556
589 4 19.2 6.4 3.2 -13.313
590 2 20.8 8 4.8 -9.83011
591 4 22.4 6.4 3.2 -13.3261
592 3 24 8 4.8 -11.1974
593 1 25.6 6.4 3.2 -11.7386
594 3 27.2 8 4.8 -11.2269
595 1 28.8 6.4 3.2 -11.7101
596 4 30.4 8 4.8 -13.0821
597 1 32 6.4 3.2 -11.6809
598 2 33.6 8 4.8 -9.79586
599 4 35.2 6.4 3.2 -13.2679
600 4 36.8 8 4.8 -13.1567
601 1 38.4 6.4 3.2 -11.7297
602 3 40 8 4.8 -11.2004
603 4 41.6 6.4 3.2 -13.3375
604 3 43.2 8 4.8 -11.2364
605 1 44.8 6.4 3.2 -11.7932
606 3 46.4 8 4.8 -11.1625
607 1 48 6.4 3.2 -11.7979
608 3 49.6 8 4.8 -11.1615
609 1 0 9.6 3.2 -11.7385
610 3 1.6 11.2 4.8 -11.1566
611 1 3.2 9.6 3.2 -11.7059
612 3 4.8 11.2 4.8 -11.1596
613 1 6.4 9.6 3.2 -11.6946
614 4 8 11.2 4.8 -13.1071
615 4 9.6 9.6 3.2 -13.1404
616 2 11.2 11.2 4.8 -9.68968
617 1 12.8 9.6 3.2 -11.7127
618 3 14.4 11.2 4.8 -11.1197
619 1 16 9.6 3.2 -11.7739
620 4 17.6 11.2 4.8 -13.1936
621 4 19.2 9.6 3.2 -13.349
622 3 20.8 11.2 4.8 -11.2318
623 1 22.4 9.6 3.2 -11.8285
624 3 24 11.2 4.8 -11.1915
625 1 25.6 9.6 3.2 -11.8545
626 3 27.2 11.2 4.8 -11.2947
627 4 28.8 9.6 3.2 -13.2962
628 4 30.4 11.2 4.8 -13.1153
629 4 32 9.6 3.2 -13.2382
630 3 33.6 11.2 4.8 -11.1856
631 4 35.2 9.6 3.2 -13.3246
632 3 36.8 11.2 4.8 -11.1928
633 1 38.4 9.6 3.2 -11.7873
634 3 40 11.2 4.8 -11.159
635 1 41.6 9.6 3.2 -11.7589
636 4 43.2 11.2 4.8 -13.0361
637 1 44.8 9.6 3.2 -11.7241
638 4 46.4 11.2 4.8 -13.1186
639 1 48 9.6 3.2 -11.7728
640 3 49.6 11.2 4.8 -11.1882
641 4 0 12.8 3.2 -13.2254
642 4 1.6 14.4 4.8 -13.151
643 4 3.2 12.8 3.2 -13.2116
644 3 4.8 14.4 4.8 -11.2691
645 4 6.4 12.8 3.2 -13.2674
646 3 8 14.4 4.8 -11.1953
647 4 9.6 12.8 3.2 -13.2151
648 3 11.2 14.4 4.8 -11.2361
649 4 12.8 12.8 3.2 -13.2684
650 3 14.4 14.4 4.8 -11.3355
651 4 16 12.8 3.2 -13.2762
652 2 17.6 14.4 4.8 -9.72544
653 4 19.2 12.8 3.2 -13.3226
654 3 20.8 14.4 4.8 -11.1938
655 4 22.4 12.8 3.2 -13.3074
656 4 24 14.4 4.8 -13.2399
657 4 25.6 12.8 3.2 -13.2732
658 2 27.2 14.4 4.8 -9.818
659 1 28.8 12.8 3.2 -11.7359
660 3 30.4 14.4 4.8 -11.0293
661 4 32 12.8 3.2 -13.2271
662 2 33.6 14.4 4.8 -9.7265
663 4 35.2 12.8 3.2 -13.2354
664 4 36.8 14.4 4.8 -13.2017
665 4 38.4 12.8 3.2 -13.3394
666 3 40 14.4 4.8 -11.2265
667 1 41.6 12.8 3.2 -11.7042
668 2 43.2 14.4 4.8 -9.70363
669 4 44.8 12.8 3.2 -13.1622
670 3 46.4 14.4 4.8 -11.2979
671 4 48 12.8 3.2 -13.3008
672 3 49.6 14.4 4.8 -11.2495
673 1 0 16 3.2 -11.5604
674 2 1.6 17.6 4.8 -9.69238
675 1 3.2 16 3.2 -11.6831
676 3 4.8 17.6 4.8 -11.1915
677 1 6.4 16 3.2 -11.7739
678 3 8 17.6 4.8 -11.2735
679 1 9.6 16 3.2 -11.7479
680 3 11.2 17.6 4.8 -11.1538
681 4 12.8 16 3.2 -13.3627
682 3 14.4 17.6 4.8 -11.1925
683 4 16 16 3.2 -13.257
684 2 17.6 17.6 4.8 -9.72575
685 4 19.2 16 3.2 -13.2387
686 3 20.8 17.6 4.8 -11.2319
687 4 22.4 16 3.2 -13.283
688 3 24 17.6 4.8 -11.1484
689 4 25.6 16 3.2 -13.1947
690 2 27.2 17.6 4.8 -9.7001
691 4 28.8 16 3.2 -13.1722
692 4 30.4 17.6 4.8 -13.072
693 1 32 16 3.2 -11.6541
694 3 33.6 17.6 4.8 -11.0337
695 1 35.2 16 3.2 -11.6968
696 4 36.8 17.6 4.8 -13.1283
697 4 38.4 16 3.2 -13.3166
698 3 40 17.6 4.8 -11.1574
699 1 41.6 16 3.2 -11.7559
700 4 43.2 17.6 4.8 -13.1111
701 4 44.8 16 3.2 -13.225
702 3 46.4 17.6 4.8 -11.1152
703 1 48 16 3.2 -11.6918
704 2 49.6 17.6 4.8 -9.72852
705 1 0 19.2 3.2 -11.7492
706 3 1.6 20.8 4.8 -11.2394
707 4 3.2 19.2 3.2 -13.2634
708 2 4.8 20.8 4.8 -9.72661
709 1 6.4 19.2 3.2 -11.7653
710 2 8 20.8 4.8 -9.73037
711 1 9.6 19.2 3.2 -11.7083
712 4 11.2 20.8 4.8 -13.0051
713 4 12.8 19.2 3.2 -13.2288
714 4 14.4 20.8 4.8 -13.1431
715 4 16 19.2 3.2 -13.1598
716 2 17.6 20.8 4.8 -9.73058
717 1 19.2 19.2 3.2 -11.6361
718 4 20.8 20.8 4.8 -13.0874
719 1 22.4 19.2 3.2 -11.7243
720 3 24 20.8 4.8 -11.2147
721 1 25.6 19.2 3.2 -11.6694
722 4 27.2 20.8 4.8 -13.2163
723 4 28.8 19.2 3.2 -13.1299
724 3 30.4 20.8 4.8 -11.0757
725 1 32 19.2 3.2 -11.7529
726 2 33.6 20.8 4.8 -9.74164
727 1 35.2 19.2 3.2 -11.786
728 3 36.8 20.8 4.8 -11.1244
729 1 38.4 19.2 3.2 -11.7342
730 3 40 20.8 4.8 -11.1238
731 1 41.6 19.2 3.2 -11.6862
732 2 43.2 20.8 4.8 -9.66499
733 1 44.8 19.2 3.2 -11.7543
734 3 46.4 20.8 4.8 -11.2314
735 1 48 19.2 3.2 -11.7286
736 3 49.6 20.8 4.8 -11.3061
737 1 0 22.4 3.2 -11.7971
738 3 1.6 24 4.8 -11.125
739 1 3.2 22.4 3.2 -11.7169
740 4 4.8 24 4.8 -13.1046
741 4 6.4 22.4 3.2 -13.1218
742 4 8 24 4.8 -13.1848
743 4 9.6 22.4 3.2 -13.1092
744 4 11.2 24 4.8 -13.1571
745 4 12.8 22.4 3.2 -13.0471
746 4 14.4 24 4.8 -13.2799
747 3 16 22.4 3.2 -11.2325
748 4 17.6 24 4.8 -13.3153
749 4 19.2 22.4 3.2 -13.2123
750 4 20.8 24 4.8 -13.1199
751 4 22.4 22.4 3.2 -13.1303
752 4 24 24 4.8 -13.2298
753 2 25.6 22.4 3.2 -9.71988
754 4 27.2 24 4.8 -13.1459
755 4 28.8 22.4 3.2 -13.1967
756 4 30.4 24 4.8 -13.135
757 1 32 22.4 3.2 -11.7118
758 2 33.6 24 4.8 -9.6572
759 1 35.2 22.4 3.2 -11.6887
760 2 36.8 24 4.8 -9.64541
761 1 38.4 22.4 3.2 -11.6874
762 3 40 24 4.8 -11.162
763 1 41.6 22.4 3.2 -11.7105
764 4 43.2 24 4.8 -13.2045
765 4 44.8 22.4 3.2 -13.2788
766 4 46.4 24 4.8 -13.1246
767 1 48 22.4 3.2 -11.8147
768 3 49.6 24 4.8 -11.163
769 1 0 25.6 3.2 -11.7438
771 2 3.2 25.6 3.2 -9.70115
773 4 6.4 25.6 3.2 -13.1256
775 3 9.6 25.6 3.2 -11.2066
777 4 12.8 25.6 3.2 -13.2007
779 3 16 25.6 3.2 -11.3142
781 3 19.2 25.6 3.2 -11.1327
783 4 22.4 25.6 3.2 -13.0864
785 4 25.6 25.6 3.2 -13.2034
787 4 28.8 25.6 3.2 -13.1104
789 4 32 25.6 3.2 -13.2127
791 1 35.2 25.6 3.2 -11.7225
793 1 38.4 25.6 3.2 -11.7353
795 4 41.6 25.6 3.2 -13.3122
797 4 44.8 25.6 3.2 -13.2602
799 1 48 25.6 3.2 -11.7577
770 2 1.6 27.2 4.8 -9.7347
801 1 0 28.8 3.2 -11.6685
772 4 4.8 27.2 4.8 -13.212
803 3 3.2 28.8 3.2 -11.2024
774 4 8 27.2 4.8 -13.2544
805 2 6.4 28.8 3.2 -9.82355
776 4 11.2 27.2 4.8 -13.297
807 3 9.6 28.8 3.2 -11.2425
778 4 14.4 27.2 4.8 -13.3328
809 4 12.8 28.8 3.2 -13.1985
780 4 17.6 27.2 4.8 -13.3754
811 2 16 28.8 3.2 -9.76086
782 4 20.8 27.2 4.8 -13.2426
813 4 19.2 28.8 3.2 -13.2749
784 4 24 27.2 4.8 -13.2045
815 4 22.4 28.8 3.2 -12.9893
817 2 25.6 28.8 3.2 -9.70955
786 4 27.2 27.2 4.8 -13.1392
819 1 28.8 28.8 3.2 -11.6385
788 4 30.4 27.2 4.8 -13.1467
821 1 32 28.8 3.2 -11.7704
790 3 33.6 27.2 4.8 -11.0766
823 1 35.2 28.8 3.2 -11.7997
792 2 36.8 27.2 4.8 -9.70728
825 1 38.4 28.8 3.2 -11.7575
794 3 40 27.2 4.8 -11.1999
827 1 41.6 28.8 3.2 -11.8527
796 3 43.2 27.2 4.8 -11.2327
829 4 44.8 28.8 3.2 -13.3237
798 2 46.4 27.2 4.8 -9.7866
831 1 48 28.8 3.2 -11.706
800 3 49.6 27.2 4.8 -11.1177
802 4 1.6 30.4 4.8 -13.1377
833 4 0 32 3.2 -13.1817
804 4 4.8 30.4 4.8 -13.2857
835 2 3.2 32 3.2 -9.7377
806 4 8 30.4 4.8 -13.2262
837 4 6.4 32 3.2 -13.1239
808 4 11.2 30.4 4.8 -13.2837
839 4 9.6 32 3.2 -13.2488
810 1 14.4 30.4 4.8 -11.684
841 2 12.8 32 3.2 -9.59121
812 4 17.6 30.4 4.8 -13.3624
843 4 16 32 3.2 -13.231
814 4 20.8 30.4 4.8 -13.1698
845 3 19.2 32 3.2 -11.1619
816 1 24 30.4 4.8 -11.6385
847 4 22.4 32 3.2 -13.014
849 2 25.6 32 3.2 -9.67901
818 4 27.2 30.4 4.8 -13.2068
851 1 28.8 32 3.2 -11.6595
820 3 30.4 30.4 4.8 -10.9853
853 1 32 32 3.2 -11.7399
822 3 33.6 30.4 4.8 -11.2033
855 4 35.2 32 3.2 -13.343
824 3 36.8 30.4 4.8 -11.1979
857 1 38.4 32 3.2 -11.6986
826 2 40 30.4 4.8 -9.69104
859 1 41.6 32 3.2 -11.6789
828 3 43.2 30.4 4.8 -11.2317
861 4 44.8 32 3.2 -13.3636
830 3 46.4 30.4 4.8 -11.1916
863 4 48 32 3.2 -13.2867
832 4 49.6 30.4 4.8 -13.1608
834 2 1.6 33.6 4.8 -9.67273
865 4 0 35.2 3.2 -13.1818
836 4 4.8 33.6 4.8 -13.171
867 4 3.2 35.2 3.2 -13.1827
838 4 8 33.6 4.8 -13.0932
869 4 6.4 35.2 3.2 -13.0669
840 3 11.2 33.6 4.8 -11.1684
871 4 9.6 35.2 3.2 -13.2178
842 4 14.4 33.6 4.8 -13.2522
873 4 12.8 35.2 3.2 -13.2938
844 3 17.6 33.6 4.8 -11.1912
875 4 16 35.2 3.2 -13.1615
846 2 20.8 33.6 4.8 -9.735
877 1 19.2 35.2 3.2 -11.7045
848 4 24 33.6 4.8 -13.1234
879 1 22.4 35.2 3.2 -11.6055
881 4 25.6 35.2 3.2 -13.1467
850 4 27.2 33.6 4.8 -13.1536
883 2 28.8 35.2 3.2 -9.64065
852 4 30.4 33.6 4.8 -13.1654
885 4 32 35.2 3.2 -13.246
854 4 33.6 33.6 4.8 -13.2614
887 3 35.2 35.2 3.2 -11.2426
856 3 36.8 33.6 4.8 -11.1965
889 4 38.4 35.2 3.2 -13.2426
858 4 40 33.6 4.8 -13.233
891 4 41.6 35.2 3.2 -13.1115
860 2 43.2 33.6 4.8 -9.78916
893 4 44.8 35.2 3.2 -13.3205
862 3 46.4 33.6 4.8 -11.2632
895 4 48 35.2 3.2 -13.3125
864 3 49.6 33.6 4.8 -11.1911
866 4 1.6 36.8 4.8 -13.037
897 4 0 38.4 3.2 -13.234
868 2 4.8 36.8 4.8 -9.70496
899 4 3.2 38.4 3.2 -13.2219
870 4 8 36.8 4.8 -13.1229
901 1 6.4 38.4 3.2 -11.6611
872 3 11.2 36.8 4.8 -11.2242
903 4 9.6 38.4 3.2 -13.2968
874 2 14.4 36.8 4.8 -9.73395
905 1 12.8 38.4 3.2 -11.81
876 4 17.6 36.8 4.8 -13.2045
907 4 16 38.4 3.2 -13.2714
878 3 20.8 36.8 4.8 -11.1567
909 1 19.2 38.4 3.2 -11.8239
880 4 24 36.8 4.8 -13.1569
911 4 22.4 38.4 3.2 -13.2394
913 2 25.6 38.4 3.2 -9.64363
882 1 27.2 36.8 4.8 -11.6914
915 4 28.8 38.4 3.2 -13.1488
884 1 30.4 36.8 4.8 -11.6684
917 3 32 38.4 3.2 -11.1143
886 1 33.6 36.8 4.8 -11.7225
919 3 35.2 38.4 3.2 -11.1971
888 1 36.8 36.8 4.8 -11.8199
921 3 38.4 38.4 3.2 -11.2629
890 4 40 36.8 4.8 -13.2646
923 3 41.6 38.4 3.2 -11.241
892 2 43.2 36.8 4.8 -9.77658
925 3 44.8 38.4 3.2 -11.3345
894 4 46.4 36.8 4.8 -13.2545
927 4 48 38.4 3.2 -13.3403
896 4 49.6 36.8 4.8 -13.024
898 3 1.6 40 4.8 -11.1537
929 1 0 41.6 3.2 -11.7161
900 3 4.8 40 4.8 -11.2677
931 4 3.2 41.6 3.2 -13.2705
902 3 8 40 4.8 -11.1903
933 1 6.4 41.6 3.2 -11.7393
904 3 11.2 40 4.8 -11.3419
935 1 9.6 41.6 3.2 -11.778
906 3 14.4 40 4.8 -11.1886
937 4 12.8 41.6 3.2 -13.3092
908 3 17.6 40 4.8 -11.1976
939 4 16 41.6 3.2 -13.281
910 3 20.8 40 4.8 -11.1867
941 4 19.2 41.6 3.2 -13.2333
912 4 24 40 4.8 -13.1657
943 4 22.4 41.6 3.2 -13.2244
945 4 25.6 41.6 3.2 -13.2118
914 1 27.2 40 4.8 -11.6606
947 3 28.8 41.6 3.2 -11.1355
916 1 30.4 40 4.8 -11.6887
949 3 32 41.6 3.2 -11.2577
918 1 33.6 40 4.8 -11.7804
951 2 35.2 41.6 3.2 -9.81122
920 1 36.8 40 4.8 -11.7965
953 3 38.4 41.6 3.2 -11.227
922 4 40 40 4.8 -13.3184
955 4 41.6 41.6 3.2 -13.2236
924 4 43.2 40 4.8 -13.2763
957 4 44.8 41.6 3.2 -13.3251
926 3 46.4 40 4.8 -11.2952
959 1 48 41.6 3.2 -11.7931
928 3 49.6 40 4.8 -11.2394
930 4 1.6 43.2 4.8 -13.1633
961 1 0 44.8 3.2 -11.6505
932 3 4.8 43.2 4.8 -11.1552
963 4 3.2 44.8 3.2 -13.2435
934 3 8 43.2 4.8 -11.2778
965 1 6.4 44.8 3.2 -11.7974
936 3 11.2 43.2 4.8 -11.1635
967 1 9.6 44.8 3.2 -11.7802
938 2 14.4 43.2 4.8 -9.65687
969 1 12.8 44.8 3.2 -11.7058
940 4 17.6 43.2 4.8 -12.9921
971 1 16 44.8 3.2 -11.6633
942 4 20.8 43.2 4.8 -13.1247
973 1 19.2 44.8 3.2 -11.6792
944 4 24 43.2 4.8 -13.1714
975 4 22.4 44.8 3.2 -13.2497
977 3 25.6 44.8 3.2 -11.2652
946 4 27.2 43.2 4.8 -13.2596
979 3 28.8 44.8 3.2 -11.3215
948 4 30.4 43.2 4.8 -13.2835
981 3 32 44.8 3.2 -11.256
950 4 33.6 43.2 4.8 -13.2739
983 3 35.2 44.8 3.2 -11.2167
952 1 36.8 43.2 4.8 -11.7531
985 4 38.4 44.8 3.2 -13.1347
954 4 40 43.2 4.8 -13.1922
987 4 41.6 44.8 3.2 -13.1426
956 4 43.2 43.2 4.8 -13.1691
989 4 44.8 44.8 3.2 -13.1942
958 3 46.4 43.2 4.8 -11.108
991 4 48 44.8 3.2 -13.244
960 3 49.6 43.2 4.8 -11.1508
962 4 1.6 46.4 4.8 -13.0691
993 1 0 48 3.2 -11.6998
964 3 4.8 46.4 4.8 -11.2384
995 1 3.2 48 3.2 -11.7185
966 3 8 46.4 4.8 -11.2414
997 1 6.4 48 3.2 -11.8415
968 3 11.2 46.4 4.8 -11.1645
999 1 9.6 48 3.2 -11.8416
970 4 14.4 46.4 4.8 -13.1049
1001 1 12.8 48 3.2 -11.7935
972 3 17.6 46.4 4.8 -11.1554
1003 1 16 48 3.2 -11.7342
974 2 20.8 46.4 4.8 -9.75814
1005 1 19.2 48 3.2 -11.7575
976 3 24 46.4 4.8 -11.1686
1007 1 22.4 48 3.2 -11.711
1009 2 25.6 48 3.2 -9.73793
978 4 27.2 46.4 4.8 -13.3537
1011 4 28.8 48 3.2 -13.1597
980 1 30.4 46.4 4.8 -11.6702
1013 2 32 48 3.2 -9.68808
982 1 33.6 46.4 4.8 -11.6751
1015 3 35.2 48 3.2 -11.1072
984 1 36.8 46.4 4.8 -11.6215
1017 4 38.4 48 3.2 -13.1701
986 4 40 46.4 4.8 -13.1589
1019 4 41.6 48 3.2 -13.2301
988 2 43.2 46.4 4.8 -9.66968
1021 1 44.8 48 3.2 -11.5772
990 4 46.4 46.4 4.8 -13.1637
1023 4 48 48 3.2 -13.2554
992 2 49.6 46.4 4.8 -9.79212
994 2 1.6 49.6 4.8 -9.68294
996 3 4.8 49.6 4.8 -11.1241
998 3 8 49.6 4.8 -11.2423
1000 3 11.2 49.6 4.8 -11.2764
1002 3 14.4 49.6 4.8 -11.2324
1004 3 17.6 49.6 4.8 -11.1169
1006 2 20.8 49.6 4.8 -9.69221
1008 3 24 49.6 4.8 -11.1528
1010 2 27.2 49.6 4.8 -9.76682
1012 1 30.4 49.6 4.8 -11.6444
1014 1 33.6 49.6 4.8 -11.6716
1016 4 36.8 49.6 4.8 -13.1263
1018 4 40 49.6 4.8 -13.2231
1020 4 43.2 49.6 4.8 -13.2244
1022 3 46.4 49.6 4.8 -11.0519
1024 3 49.6 49.6 4.8 -11.288
1025 4 0 0 6.4 -13.3002
1026 3 1.6 1.6 8 -11.1542
1027 1 3.2 0 6.4 -11.6974
1028 4 4.8 1.6 8 -13.0985
1029 1 6.4 0 6.4 -11.7108
1030 3 8 1.6 8 -11.1237
1031 1 9.6 0 6.4 -11.8415
1032 3 11.2 1.6 8 -11.2045
1033 1 12.8 0 6.4 -11.8555
1034 3 14.4 1.6 8 -11.2399
1035 1 16 0 6.4 -11.733
1036 4 17.6 1.6 8 -13.1608
1037 1 19.2 0 6.4 -11.6387
1038 3 20.8 1.6 8 -11.0251
1039 1 22.4 0 6.4 -11.6512
1040 4 24 1.6 8 -13.1799
1041 4 25.6 0 6.4 -13.2024
1042 4 27.2 1.6 8 -13.1083
1043 4 28.8 0 6.4 -13.1817
1044 1 30.4 1.6 8 -11.6344
1045 3 32 0 6.4 -11.0193
1046 4 33.6 1.6 8 -13.2306
1047 4 35.2 0 6.4 -13.2251
1048 4 36.8 1.6 8 -13.3024
1049 4 38.4 0 6.4 -13.1913
1050 3 40 1.6 8 -11.2217
1051 4 41.6 0 6.4 -13.3358
1052 3 43.2 1.6 8 -11.2595
1053 4 44.8 0 6.4 -13.2134
1054 2 46.4 1.6 8 -9.73629
1055 4 48 0 6.4 -13.2577
1056 4 49.6 1.6 8 -13.2024
1057 1 0 3.2 6.4 -11.7685
1058 3 1.6 4.8 8 -11.199
1059 1 3.2 3.2 6.4 -11.7445
1060 3 4.8 4.8 8 -11.1565
1061 1 6.4 3.2 6.4 -11.6898
1062 4 8 4.8 8 -13.165
1063 1 9.6 3.2 6.4 -11.7932
1064 3 11.2 4.8 8 -11.1237
1065 1 12.8 3.2 6.4 -11.8556
1066 3 14.4 4.8 8 -11.2392
1067 4 16 3.2 6.4 -13.2574
1068 3 17.6 4.8 8 -11.1623
1069 4 19.2 3.2 6.4 -13.2208
1070 3 20.8 4.8 8 -11.2339
1071 4 22.4 3.2 6.4 -13.2674
1072 3 24 4.8 8 -11.1633
1073 4 25.6 3.2 6.4 -13.1823
1074 3 27.2 4.8 8 -11.1879
1075 4 28.8 3.2 6.4 -13.2197
1076 3 30.4 4.8 8 -11.2047
1077 4 32 3.2 6.4 -13.301
1078 4 33.6 4.8 8 -13.3258
1079 4 35.2 3.2 6.4 -13.2968
1080 2 36.8 4.8 8 -9.73244
1081 1 38.4 3.2 6.4 -11.8136
1082 3 40 4.8 8 -11.2008
1083 1 41.6 3.2 6.4 -11.869
1084 3 43.2 4.8 8 -11.2742
1085 1 44.8 3.2 6.4 -11.7346
1086 3 46.4 4.8 8 -11.1918
1087 4 48 3.2 6.4 -13.1823
1088 4 49.6 4.8 8 -13.1633
1089 1 0 6.4 6.4 -11.7242
1090 3 1.6 8 8 -11.1954
1091 1 3.2 6.4 6.4 -11.7933
1092 3 4.8 8 8 -11.2773
1093 4 6.4 6.4 6.4 -13.2651
1094 3 8 8 8 -11.1622
1095 1 9.6 6.4 6.4 -11.6901
1096 3 11.2 8 8 -11.1209
1097 1 12.8 6.4 6.4 -11.7537
1098 2 14.4 8 8 -9.73544
1099 1 16 6.4 6.4 -11.7847
1100 3 17.6 8 8 -11.1651
1101 1 19.2 6.4 6.4 -11.7896
1102 3 20.8 8 8 -11.2048