 # Bcc Mo oriented X=[100] Y=[010] Z=[001].
  
        8192  atoms
           4  atom types
 
      0.000000000000      51.200000000000  xlo xhi
      0.000000000000      51.200000000000  ylo yhi
      0.000000000000      51.200000000000  zlo zhi
 
 
 
Atoms # atomic

1 1 0.0 0.0 0.0
2 3 1.6 1.6 1.6
3 1 3.2 0.0 0.0
4 3 4.8 1.6 1.6
5 1 6.4 0.0 0.0
6 3 8.0 1.6 1.6
7 2 9.6 0.0 0.0
8 2 11.2 1.6 1.6
9 2 12.8 0.0 0.0
10 2 14.4 1.6 1.6
11 3 16.0 0.0 0.0
12 2 17.6 1.6 1.6
13 3 19.2 0.0 0.0
14 1 20.8 1.6 1.6
15 2 22.4 0.0 0.0
16 1 24.0 1.6 1.6
17 1 25.6 0.0 0.0
18 3 27.2 1.6 1.6
19 1 28.8 0.0 0.0
20 2 30.4 1.6 1.6
21 1 32.0 0.0 0.0
22 2 33.6 1.6 1.6
23 1 35.2 0.0 0.0
24 3 36.8 1.6 1.6
25 1 38.4 0.0 0.0
26 3 40.0 1.6 1.6
27 1 41.6 0.0 0.0
28 2 43.2 1.6 1.6
29 1 44.8 0.0 0.0
30 3 46.4 1.6 1.6
31 1 48.0 0.0 0.0
32 3 49.6 1.6 1.6
33 1 0.0 3.2 0.0
34 2 1.6 4.8 1.6
35 2 3.2 3.2 0.0
36 3 4.8 4.8 1.6
37 1 6.4 3.2 0.0
38 3 8.0 4.8 1.6
39 1 9.6 3.2 0.0
40 3 11.2 4.8 1.6
41 2 12.8 3.2 0.0
42 3 14.4 4.8 1.6
43 1 16.0 3.2 0.0
44 2 17.6 4.8 1.6
45 1 19.2 3.2 0.0
46 2 20.8 4.8 1.6
47 2 22.4 3.2 0.0
48 2 24.0 4.8 1.6
49 1 25.6 3.2 0.0
50 2 27.2 4.8 1.6
51 1 28.8 3.2 0.0
52 2 30.4 4.8 1.6
53 1 32.0 3.2 0.0
54 3 33.6 4.8 1.6
55 1 35.2 3.2 0.0
56 2 36.8 4.8 1.6
57 1 38.4 3.2 0.0
58 2 40.0 4.8 1.6
59 1 41.6 3.2 0.0
60 3 43.2 4.8 1.6
61 1 44.8 3.2 0.0
62 3 46.4 4.8 1.6
63 1 48.0 3.2 0.0
64 2 49.6 4.8 1.6
65 1 0.0 6.4 0.0
66 3 1.6 8.0 1.6
67 1 3.2 6.4 0.0
68 3 4.8 8.0 1.6
69 1 6.4 6.4 0.0
70 3 8.0 8.0 1.6
71 1 9.6 6.4 0.0
72 3 11.2 8.0 1.6
73 1 12.8 6.4 0.0
74 3 14.4 8.0 1.6
75 1 16.0 6.4 0.0
76 3 17.6 8.0 1.6
77 1 19.2 6.4 0.0
78 2 20.8 8.0 1.6
79 2 22.4 6.4 0.0
80 1 24.0 8.0 1.6
81 1 25.6 6.4 0.0
82 3 27.2 8.0 1.6
83 1 28.8 6.4 0.0
84 3 30.4 8.0 1.6
85 1 32.0 6.4 0.0
86 2 33.6 8.0 1.6
87 1 35.2 6.4 0.0
88 3 36.8 8.0 1.6
89 1 38.4 6.4 0.0
90 3 40.0 8.0 1.6
91 1 41.6 6.4 0.0
92 2 43.2 8.0 1.6
93 1 44.8 6.4 0.0
94 3 46.4 8.0 1.6
95 2 48.0 6.4 0.0
96 3 49.6 8.0 1.6
97 1 0.0 9.6 0.0
98 3 1.6 11.2 1.6
99 1 3.2 9.6 0.0
100 3 4.8 11.2 1.6
101 1 6.4 9.6 0.0
102 3 8.0 11.2 1.6
103 1 9.6 9.6 0.0
104 3 11.2 11.2 1.6
105 1 12.8 9.6 0.0
106 3 14.4 11.2 1.6
107 1 16.0 9.6 0.0
108 3 17.6 11.2 1.6
109 1 19.2 9.6 0.0
110 2 20.8 11.2 1.6
111 2 22.4 9.6 0.0
112 2 24.0 11.2 1.6
113 2 25.6 9.6 0.0
114 2 27.2 11.2 1.6
115 1 28.8 9.6 0.0
116 3 30.4 11.2 1.6
117 1 32.0 9.6 0.0
118 2 33.6 11.2 1.6
119 1 35.2 9.6 0.0
120 3 36.8 11.2 1.6
121 1 38.4 9.6 0.0
122 3 40.0 11.2 1.6
123 1 41.6 9.6 0.0
124 3 43.2 11.2 1.6
125 1 44.8 9.6 0.0
126 3 46.4 11.2 1.6
127 1 48.0 9.6 0.0
128 3 49.6 11.2 1.6
129 1 0.0 12.8 0.0
130 3 1.6 14.4 1.6
131 1 3.2 12.8 0.0
132 3 4.8 14.4 1.6
133 1 6.4 12.8 0.0
134 3 8.0 14.4 1.6
135 1 9.6 12.8 0.0
136 3 11.2 14.4 1.6
137 1 12.8 12.8 0.0
138 3 14.4 14.4 1.6
139 1 16.0 12.8 0.0
140 3 17.6 14.4 1.6
141 1 19.2 12.8 0.0
142 3 20.8 14.4 1.6
143 1 22.4 12.8 0.0
144 2 24.0 14.4 1.6
145 1 25.6 12.8 0.0
146 2 27.2 14.4 1.6
147 1 28.8 12.8 0.0
148 3 30.4 14.4 1.6
149 1 32.0 12.8 0.0
150 3 33.6 14.4 1.6
151 1 35.2 12.8 0.0
152 3 36.8 14.4 1.6
153 1 38.4 12.8 0.0
154 3 40.0 14.4 1.6
155 1 41.6 12.8 0.0
156 3 43.2 14.4 1.6
157 1 44.8 12.8 0.0
158 3 46.4 14.4 1.6
159 1 48.0 12.8 0.0
160 3 49.6 14.4 1.6
161 1 0.0 16.0 0.0
162 2 1.6 17.6 1.6
163 1 3.2 16.0 0.0
164 3 4.8 17.6 1.6
165 1 6.4 16.0 0.0
166 3 8.0 17.6 1.6
167 1 9.6 16.0 0.0
168 3 11.2 17.6 1.6
169 1 12.8 16.0 0.0
170 3 14.4 17.6 1.6
171 1 16.0 16.0 0.0
172 2 17.6 17.6 1.6
173 1 19.2 16.0 0.0
174 3 20.8 17.6 1.6
175 2 22.4 16.0 0.0
176 2 24.0 17.6 1.6
177 2 25.6 16.0 0.0
178 2 27.2 17.6 1.6
179 1 28.8 16.0 0.0
180 2 30.4 17.6 1.6
181 2 32.0 16.0 0.0
182 2 33.6 17.6 1.6
183 1 35.2 16.0 0.0
184 3 36.8 17.6 1.6
185 1 38.4 16.0 0.0
186 3 40.0 17.6 1.6
187 1 41.6 16.0 0.0
188 3 43.2 17.6 1.6
189 1 44.8 16.0 0.0
190 3 46.4 17.6 1.6
191 1 48.0 16.0 0.0
192 2 49.6 17.6 1.6
193 2 0.0 19.2 0.0
194 1 1.6 20.8 1.6
195 2 3.2 19.2 0.0
196 2 4.8 20.8 1.6
197 1 6.4 19.2 0.0
198 2 8.0 20.8 1.6
199 1 9.6 19.2 0.0
200 3 11.2 20.8 1.6
201 1 12.8 19.2 0.0
202 2 14.4 20.8 1.6
203 2 16.0 19.2 0.0
204 2 17.6 20.8 1.6
205 1 19.2 19.2 0.0
206 1 20.8 20.8 1.6
207 2 22.4 19.2 0.0
208 1 24.0 20.8 1.6
209 2 25.6 19.2 0.0
210 1 27.2 20.8 1.6
211 2 28.8 19.2 0.0
212 1 30.4 20.8 1.6
213 2 32.0 19.2 0.0
214 1 33.6 20.8 1.6
215 2 35.2 19.2 0.0
216 3 36.8 20.8 1.6
217 1 38.4 19.2 0.0
218 2 40.0 20.8 1.6
219 1 41.6 19.2 0.0
220 2 43.2 20.8 1.6
221 1 44.8 19.2 0.0
222 2 46.4 20.8 1.6
223 2 48.0 19.2 0.0
224 1 49.6 20.8 1.6
225 2 0.0 22.4 0.0
226 1 1.6 24.0 1.6
227 2 3.2 22.4 0.0
228 1 4.8 24.0 1.6
229 2 6.4 22.4 0.0
230 1 8.0 24.0 1.6
231 1 9.6 22.4 0.0
232 1 11.2 24.0 1.6
233 1 12.8 22.4 0.0
234 2 14.4 24.0 1.6
235 1 16.0 22.4 0.0
236 3 17.6 24.0 1.6
237 2 19.2 22.4 0.0
238 1 20.8 24.0 1.6
239 2 22.4 22.4 0.0
240 2 24.0 24.0 1.6
241 3 25.6 22.4 0.0
242 1 27.2 24.0 1.6
243 3 28.8 22.4 0.0
244 1 30.4 24.0 1.6
245 3 32.0 22.4 0.0
246 1 33.6 24.0 1.6
247 3 35.2 22.4 0.0
248 1 36.8 24.0 1.6
249 2 38.4 22.4 0.0
250 1 40.0 24.0 1.6
251 3 41.6 22.4 0.0
252 1 43.2 24.0 1.6
253 2 44.8 22.4 0.0
254 2 46.4 24.0 1.6
255 2 48.0 22.4 0.0
256 1 49.6 24.0 1.6
257 2 0.0 25.6 0.0
258 2 1.6 27.2 1.6
259 2 3.2 25.6 0.0
260 2 4.8 27.2 1.6
261 2 6.4 25.6 0.0
262 1 8.0 27.2 1.6
263 3 9.6 25.6 0.0
264 1 11.2 27.2 1.6
265 2 12.8 25.6 0.0
266 2 14.4 27.2 1.6
267 1 16.0 25.6 0.0
268 2 17.6 27.2 1.6
269 2 19.2 25.6 0.0
270 2 20.8 27.2 1.6
271 2 22.4 25.6 0.0
272 1 24.0 27.2 1.6
273 3 25.6 25.6 0.0
274 1 27.2 27.2 1.6
275 3 28.8 25.6 0.0
276 1 30.4 27.2 1.6
277 3 32.0 25.6 0.0
278 1 33.6 27.2 1.6
279 3 35.2 25.6 0.0
280 1 36.8 27.2 1.6
281 3 38.4 25.6 0.0
282 1 40.0 27.2 1.6
283 3 41.6 25.6 0.0
284 1 43.2 27.2 1.6
285 2 44.8 25.6 0.0
286 2 46.4 27.2 1.6
287 1 48.0 25.6 0.0
288 2 49.6 27.2 1.6
289 2 0.0 28.8 0.0
290 3 1.6 30.4 1.6
291 2 3.2 28.8 0.0
292 1 4.8 30.4 1.6
293 3 6.4 28.8 0.0
294 1 8.0 30.4 1.6
295 2 9.6 28.8 0.0
296 2 11.2 30.4 1.6
297 2 12.8 28.8 0.0
298 1 14.4 30.4 1.6
299 2 16.0 28.8 0.0
300 1 17.6 30.4 1.6
301 1 19.2 28.8 0.0
302 1 20.8 30.4 1.6
303 1 22.4 28.8 0.0
304 3 24.0 30.4 1.6
305 2 25.6 28.8 0.0
306 1 27.2 30.4 1.6
307 2 28.8 28.8 0.0
308 1 30.4 30.4 1.6
309 3 32.0 28.8 0.0
310 1 33.6 30.4 1.6
311 3 35.2 28.8 0.0
312 1 36.8 30.4 1.6
313 3 38.4 28.8 0.0
314 1 40.0 30.4 1.6
315 3 41.6 28.8 0.0
316 1 43.2 30.4 1.6
317 2 44.8 28.8 0.0
318 2 46.4 30.4 1.6
319 2 48.0 28.8 0.0
320 3 49.6 30.4 1.6
321 3 0.0 32.0 0.0
322 3 1.6 33.6 1.6
323 2 3.2 32.0 0.0
324 2 4.8 33.6 1.6
325 3 6.4 32.0 0.0
326 2 8.0 33.6 1.6
327 3 9.6 32.0 0.0
328 2 11.2 33.6 1.6
329 3 12.8 32.0 0.0
330 1 14.4 33.6 1.6
331 3 16.0 32.0 0.0
332 3 17.6 33.6 1.6
333 2 19.2 32.0 0.0
334 1 20.8 33.6 1.6
335 2 22.4 32.0 0.0
336 3 24.0 33.6 1.6
337 2 25.6 32.0 0.0
338 2 27.2 33.6 1.6
339 2 28.8 32.0 0.0
340 2 30.4 33.6 1.6
341 3 32.0 32.0 0.0
342 1 33.6 33.6 1.6
343 3 35.2 32.0 0.0
344 1 36.8 33.6 1.6
345 2 38.4 32.0 0.0
346 1 40.0 33.6 1.6
347 3 41.6 32.0 0.0
348 2 43.2 33.6 1.6
349 2 44.8 32.0 0.0
350 2 46.4 33.6 1.6
351 2 48.0 32.0 0.0
352 3 49.6 33.6 1.6
353 2 0.0 35.2 0.0
354 3 1.6 36.8 1.6
355 1 3.2 35.2 0.0
356 2 4.8 36.8 1.6
357 2 6.4 35.2 0.0
358 2 8.0 36.8 1.6
359 2 9.6 35.2 0.0
360 2 11.2 36.8 1.6
361 2 12.8 35.2 0.0
362 1 14.4 36.8 1.6
363 3 16.0 35.2 0.0
364 1 17.6 36.8 1.6
365 3 19.2 35.2 0.0
366 2 20.8 36.8 1.6
367 1 22.4 35.2 0.0
368 2 24.0 36.8 1.6
369 1 25.6 35.2 0.0
370 3 27.2 36.8 1.6
371 1 28.8 35.2 0.0
372 3 30.4 36.8 1.6
373 2 32.0 35.2 0.0
374 1 33.6 36.8 1.6
375 3 35.2 35.2 0.0
376 1 36.8 36.8 1.6
377 3 38.4 35.2 0.0
378 1 40.0 36.8 1.6
379 2 41.6 35.2 0.0
380 3 43.2 36.8 1.6
381 1 44.8 35.2 0.0
382 2 46.4 36.8 1.6
383 2 48.0 35.2 0.0
384 2 49.6 36.8 1.6
385 1 0.0 38.4 0.0
386 3 1.6 40.0 1.6
387 1 3.2 38.4 0.0
388 3 4.8 40.0 1.6
389 1 6.4 38.4 0.0
390 3 8.0 40.0 1.6
391 1 9.6 38.4 0.0
392 2 11.2 40.0 1.6
393 2 12.8 38.4 0.0
394 1 14.4 40.0 1.6
395 3 16.0 38.4 0.0
396 1 17.6 40.0 1.6
397 2 19.2 38.4 0.0
398 2 20.8 40.0 1.6
399 1 22.4 38.4 0.0
400 3 24.0 40.0 1.6
401 1 25.6 38.4 0.0
402 3 27.2 40.0 1.6
403 1 28.8 38.4 0.0
404 2 30.4 40.0 1.6
405 2 32.0 38.4 0.0
406 1 33.6 40.0 1.6
407 3 35.2 38.4 0.0
408 1 36.8 40.0 1.6
409 3 38.4 38.4 0.0
410 1 40.0 40.0 1.6
411 2 41.6 38.4 0.0
412 3 43.2 40.0 1.6
413 1 44.8 38.4 0.0
414 3 46.4 40.0 1.6
415 1 48.0 38.4 0.0
416 3 49.6 40.0 1.6
417 1 0.0 41.6 0.0
418 3 1.6 43.2 1.6
419 1 3.2 41.6 0.0
420 2 4.8 43.2 1.6
421 1 6.4 41.6 0.0
422 3 8.0 43.2 1.6
423 1 9.6 41.6 0.0
424 2 11.2 43.2 1.6
425 2 12.8 41.6 0.0
426 1 14.4 43.2 1.6
427 2 16.0 41.6 0.0
428 1 17.6 43.2 1.6
429 2 19.2 41.6 0.0
430 1 20.8 43.2 1.6
431 1 22.4 41.6 0.0
432 2 24.0 43.2 1.6
433 1 25.6 41.6 0.0
434 3 27.2 43.2 1.6
435 1 28.8 41.6 0.0
436 3 30.4 43.2 1.6
437 2 32.0 41.6 0.0
438 2 33.6 43.2 1.6
439 3 35.2 41.6 0.0
440 1 36.8 43.2 1.6
441 2 38.4 41.6 0.0
442 1 40.0 43.2 1.6
443 1 41.6 41.6 0.0
444 3 43.2 43.2 1.6
445 1 44.8 41.6 0.0
446 3 46.4 43.2 1.6
447 1 48.0 41.6 0.0
448 3 49.6 43.2 1.6
449 1 0.0 44.8 0.0
450 3 1.6 46.4 1.6
451 1 3.2 44.8 0.0
452 3 4.8 46.4 1.6
453 1 6.4 44.8 0.0
454 3 8.0 46.4 1.6
455 1 9.6 44.8 0.0
456 2 11.2 46.4 1.6
457 2 12.8 44.8 0.0
458 1 14.4 46.4 1.6
459 3 16.0 44.8 0.0
460 2 17.6 46.4 1.6
461 1 19.2 44.8 0.0
462 2 20.8 46.4 1.6
463 1 22.4 44.8 0.0
464 2 24.0 46.4 1.6
465 1 25.6 44.8 0.0
466 3 27.2 46.4 1.6
467 2 28.8 44.8 0.0
468 2 30.4 46.4 1.6
469 2 32.0 44.8 0.0
470 2 33.6 46.4 1.6
471 3 35.2 44.8 0.0
472 2 36.8 46.4 1.6
473 2 38.4 44.8 0.0
474 3 40.0 46.4 1.6
475 1 41.6 44.8 0.0
476 3 43.2 46.4 1.6
477 1 44.8 44.8 0.0
478 3 46.4 46.4 1.6
479 1 48.0 44.8 0.0
480 3 49.6 46.4 1.6
481 1 0.0 48.0 0.0
482 3 1.6 49.6 1.6
483 1 3.2 48.0 0.0
484 3 4.8 49.6 1.6
485 1 6.4 48.0 0.0
486 2 8.0 49.6 1.6
487 2 9.6 48.0 0.0
488 1 11.2 49.6 1.6
489 3 12.8 48.0 0.0
490 1 14.4 49.6 1.6
491 3 16.0 48.0 0.0
492 1 17.6 49.6 1.6
493 1 19.2 48.0 0.0
494 1 20.8 49.6 1.6
495 1 22.4 48.0 0.0
496 2 24.0 49.6 1.6
497 1 25.6 48.0 0.0
498 3 27.2 49.6 1.6
499 1 28.8 48.0 0.0
500 2 30.4 49.6 1.6
501 1 32.0 48.0 0.0
502 2 33.6 49.6 1.6
503 1 35.2 48.0 0.0
504 2 36.8 49.6 1.6
505 1 38.4 48.0 0.0
506 2 40.0 49.6 1.6
507 1 41.6 48.0 0.0
508 3 43.2 49.6 1.6
509 1 44.8 48.0 0.0
510 3 46.4 49.6 1.6
511 1 48.0 48.0 0.0
512 3 49.6 49.6 1.6
513 1 0.0 0.0 3.2
514 3 1.6 1.6 4.8
515 1 3.2 0.0 3.2
516 2 4.8 1.6 4.8
517 1 6.4 0.0 3.2
518 3 8.0 1.6 4.8
519 2 9.6 0.0 3.2
520 2 11.2 1.6 4.8
521 2 12.8 0.0 3.2
522 1 14.4 1.6 4.8
523 2 16.0 0.0 3.2
524 2 17.6 1.6 4.8
525 2 19.2 0.0 3.2
526 1 20.8 1.6 4.8
527 2 22.4 0.0 3.2
528 1 24.0 1.6 4.8
529 3 25.6 0.0 3.2
530 2 27.2 1.6 4.8
531 1 28.8 0.0 3.2
532 2 30.4 1.6 4.8
533 2 32.0 0.0 3.2
534 2 33.6 1.6 4.8
535 2 35.2 0.0 3.2
536 1 36.8 1.6 4.8
537 3 38.4 0.0 3.2
538 1 40.0 1.6 4.8
539 2 41.6 0.0 3.2
540 1 43.2 1.6 4.8
541 2 44.8 0.0 3.2
542 2 46.4 1.6 4.8
543 1 48.0 0.0 3.2
544 3 49.6 1.6 4.8
545 1 0.0 3.2 3.2
546 2 1.6 4.8 4.8
547 2 3.2 3.2 3.2
548 2 4.8 4.8 4.8
549 1 6.4 3.2 3.2
550 3 8.0 4.8 4.8
551 1 9.6 3.2 3.2
552 3 11.2 4.8 4.8
553 1 12.8 3.2 3.2
554 2 14.4 4.8 4.8
555 1 16.0 3.2 3.2
556 2 17.6 4.8 4.8
557 2 19.2 3.2 3.2
558 1 20.8 4.8 4.8
559 3 22.4 3.2 3.2
560 1 24.0 4.8 4.8
561 2 25.6 3.2 3.2
562 2 27.2 4.8 4.8
563 2 28.8 3.2 3.2
564 2 30.4 4.8 4.8
565 2 32.0 3.2 3.2
566 1 33.6 4.8 4.8
567 2 35.2 3.2 3.2
568 1 36.8 4.8 4.8
569 2 38.4 3.2 3.2
570 1 40.0 4.8 4.8
571 2 41.6 3.2 3.2
572 2 43.2 4.8 4.8
573 1 44.8 3.2 3.2
574 3 46.4 4.8 4.8
575 1 48.0 3.2 3.2
576 2 49.6 4.8 4.8
577 1 0.0 6.4 3.2
578 3 1.6 8.0 4.8
579 1 3.2 6.4 3.2
580 3 4.8 8.0 4.8
581 1 6.4 6.4 3.2
582 3 8.0 8.0 4.8
583 1 9.6 6.4 3.2
584 3 11.2 8.0 4.8
585 1 12.8 6.4 3.2
586 3 14.4 8.0 4.8
587 1 16.0 6.4 3.2
588 2 17.6 8.0 4.8
589 2 19.2 6.4 3.2
590 1 20.8 8.0 4.8
591 3 22.4 6.4 3.2
592 1 24.0 8.0 4.8
593 2 25.6 6.4 3.2
594 2 27.2 8.0 4.8
595 1 28.8 6.4 3.2
596 2 30.4 8.0 4.8
597 1 32.0 6.4 3.2
598 2 33.6 8.0 4.8
599 2 35.2 6.4 3.2
600 2 36.8 8.0 4.8
601 2 38.4 6.4 3.2
602 3 40.0 8.0 4.8
603 3 41.6 6.4 3.2
604 3 43.2 8.0 4.8
605 1 44.8 6.4 3.2
606 3 46.4 8.0 4.8
607 1 48.0 6.4 3.2
608 3 49.6 8.0 4.8
609 1 0.0 9.6 3.2
610 3 1.6 11.2 4.8
611 1 3.2 9.6 3.2
612 3 4.8 11.2 4.8
613 1 6.4 9.6 3.2
614 3 8.0 11.2 4.8
615 1 9.6 9.6 3.2
616 3 11.2 11.2 4.8
617 1 12.8 9.6 3.2
618 3 14.4 11.2 4.8
619 1 16.0 9.6 3.2
620 2 17.6 11.2 4.8
621 2 19.2 9.6 3.2
622 2 20.8 11.2 4.8
623 2 22.4 9.6 3.2
624 2 24.0 11.2 4.8
625 2 25.6 9.6 3.2
626 2 27.2 11.2 4.8
627 1 28.8 9.6 3.2
628 2 30.4 11.2 4.8
629 1 32.0 9.6 3.2
630 3 33.6 11.2 4.8
631 1 35.2 9.6 3.2
632 3 36.8 11.2 4.8
633 1 38.4 9.6 3.2
634 3 40.0 11.2 4.8
635 1 41.6 9.6 3.2
636 3 43.2 11.2 4.8
637 1 44.8 9.6 3.2
638 3 46.4 11.2 4.8
639 1 48.0 9.6 3.2
640 3 49.6 11.2 4.8
641 1 0.0 12.8 3.2
642 3 1.6 14.4 4.8
643 1 3.2 12.8 3.2
644 3 4.8 14.4 4.8
645 1 6.4 12.8 3.2
646 3 8.0 14.4 4.8
647 1 9.6 12.8 3.2
648 3 11.2 14.4 4.8
649 1 12.8 12.8 3.2
650 3 14.4 14.4 4.8
651 1 16.0 12.8 3.2
652 3 17.6 14.4 4.8
653 1 19.2 12.8 3.2
654 3 20.8 14.4 4.8
655 1 22.4 12.8 3.2
656 2 24.0 14.4 4.8
657 1 25.6 12.8 3.2
658 2 27.2 14.4 4.8
659 1 28.8 12.8 3.2
660 3 30.4 14.4 4.8
661 1 32.0 12.8 3.2
662 3 33.6 14.4 4.8
663 1 35.2 12.8 3.2
664 3 36.8 14.4 4.8
665 1 38.4 12.8 3.2
666 2 40.0 14.4 4.8
667 1 41.6 12.8 3.2
668 3 43.2 14.4 4.8
669 1 44.8 12.8 3.2
670 3 46.4 14.4 4.8
671 1 48.0 12.8 3.2
672 3 49.6 14.4 4.8
673 1 0.0 16.0 3.2
674 3 1.6 17.6 4.8
675 1 3.2 16.0 3.2
676 3 4.8 17.6 4.8
677 1 6.4 16.0 3.2
678 3 8.0 17.6 4.8
679 1 9.6 16.0 3.2
680 3 11.2 17.6 4.8
681 1 12.8 16.0 3.2
682 3 14.4 17.6 4.8
683 1 16.0 16.0 3.2
684 3 17.6 17.6 4.8
685 1 19.2 16.0 3.2
686 3 20.8 17.6 4.8
687 2 22.4 16.0 3.2
688 1 24.0 17.6 4.8
689 2 25.6 16.0 3.2
690 1 27.2 17.6 4.8
691 2 28.8 16.0 3.2
692 2 30.4 17.6 4.8
693 1 32.0 16.0 3.2
694 2 33.6 17.6 4.8
695 1 35.2 16.0 3.2
696 3 36.8 17.6 4.8
697 1 38.4 16.0 3.2
698 3 40.0 17.6 4.8
699 1 41.6 16.0 3.2
700 2 43.2 17.6 4.8
701 1 44.8 16.0 3.2
702 3 46.4 17.6 4.8
703 1 48.0 16.0 3.2
704 3 49.6 17.6 4.8
705 2 0.0 19.2 3.2
706 2 1.6 20.8 4.8
707 2 3.2 19.2 3.2
708 2 4.8 20.8 4.8
709 1 6.4 19.2 3.2
710 2 8.0 20.8 4.8
711 1 9.6 19.2 3.2
712 3 11.2 20.8 4.8
713 1 12.8 19.2 3.2
714 3 14.4 20.8 4.8
715 1 16.0 19.2 3.2
716 3 17.6 20.8 4.8
717 1 19.2 19.2 3.2
718 2 20.8 20.8 4.8
719 2 22.4 19.2 3.2
720 1 24.0 20.8 4.8
721 2 25.6 19.2 3.2
722 1 27.2 20.8 4.8
723 2 28.8 19.2 3.2
724 1 30.4 20.8 4.8
725 2 32.0 19.2 3.2
726 1 33.6 20.8 4.8
727 2 35.2 19.2 3.2
728 2 36.8 20.8 4.8
729 1 38.4 19.2 3.2
730 2 40.0 20.8 4.8
731 1 41.6 19.2 3.2
732 2 43.2 20.8 4.8
733 1 44.8 19.2 3.2
734 2 46.4 20.8 4.8
735 1 48.0 19.2 3.2
736 3 49.6 20.8 4.8
737 3 0.0 22.4 3.2
738 3 1.6 24.0 4.8
739 3 3.2 22.4 3.2
740 1 4.8 24.0 4.8
741 2 6.4 22.4 3.2
742 1 8.0 24.0 4.8
743 2 9.6 22.4 3.2
744 3 11.2 24.0 4.8
745 2 12.8 22.4 3.2
746 3 14.4 24.0 4.8
747 1 16.0 22.4 3.2
748 3 17.6 24.0 4.8
749 1 19.2 22.4 3.2
750 2 20.8 24.0 4.8
751 2 22.4 22.4 3.2
752 1 24.0 24.0 4.8
753 2 25.6 22.4 3.2
754 1 27.2 24.0 4.8
755 3 28.8 22.4 3.2
756 1 30.4 24.0 4.8
757 2 32.0 22.4 3.2
758 1 33.6 24.0 4.8
759 3 35.2 22.4 3.2
760 1 36.8 24.0 4.8
761 2 38.4 22.4 3.2
762 1 40.0 24.0 4.8
763 2 41.6 22.4 3.2
764 1 43.2 24.0 4.8
765 2 44.8 22.4 3.2
766 2 46.4 24.0 4.8
767 1 48.0 22.4 3.2
768 2 49.6 24.0 4.8
769 2 0.0 25.6 3.2
770 1 1.6 27.2 4.8
771 3 3.2 25.6 3.2
772 1 4.8 27.2 4.8
773 2 6.4 25.6 3.2
774 1 8.0 27.2 4.8
775 3 9.6 25.6 3.2
776 2 11.2 27.2 4.8
777 2 12.8 25.6 3.2
778 3 14.4 27.2 4.8
779 1 16.0 25.6 3.2
780 2 17.6 27.2 4.8
781 2 19.2 25.6 3.2
782 2 20.8 27.2 4.8
783 2 22.4 25.6 3.2
784 1 24.0 27.2 4.8
785 3 25.6 25.6 3.2
786 1 27.2 27.2 4.8
787 3 28.8 25.6 3.2
788 1 30.4 27.2 4.8
789 3 32.0 25.6 3.2
790 1 33.6 27.2 4.8
791 3 35.2 25.6 3.2
792 1 36.8 27.2 4.8
793 3 38.4 25.6 3.2
794 1 40.0 27.2 4.8
795 3 41.6 25.6 3.2
796 1 43.2 27.2 4.8
797 3 44.8 25.6 3.2
798 1 46.4 27.2 4.8
799 2 48.0 25.6 3.2
800 1 49.6 27.2 4.8
801 1 0.0 28.8 3.2
802 3 1.6 30.4 4.8
803 1 3.2 28.8 3.2
804 2 4.8 30.4 4.8
805 2 6.4 28.8 3.2
806 2 8.0 30.4 4.8
807 2 9.6 28.8 3.2
808 2 11.2 30.4 4.8
809 1 12.8 28.8 3.2
810 2 14.4 30.4 4.8
811 2 16.0 28.8 3.2
812 1 17.6 30.4 4.8
813 2 19.2 28.8 3.2
814 2 20.8 30.4 4.8
815 2 22.4 28.8 3.2
816 1 24.0 30.4 4.8
817 3 25.6 28.8 3.2
818 1 27.2 30.4 4.8
819 3 28.8 28.8 3.2
820 1 30.4 30.4 4.8
821 3 32.0 28.8 3.2
822 1 33.6 30.4 4.8
823 3 35.2 28.8 3.2
824 1 36.8 30.4 4.8
825 3 38.4 28.8 3.2
826 1 40.0 30.4 4.8
827 3 41.6 28.8 3.2
828 1 43.2 30.4 4.8
829 3 44.8 28.8 3.2
830 2 46.4 30.4 4.8
831 2 48.0 28.8 3.2
832 3 49.6 30.4 4.8
833 1 0.0 32.0 3.2
834 3 1.6 33.6 4.8
835 1 3.2 32.0 3.2
836 3 4.8 33.6 4.8
837 2 6.4 32.0 3.2
838 3 8.0 33.6 4.8
839 2 9.6 32.0 3.2
840 3 11.2 33.6 4.8
841 3 12.8 32.0 3.2
842 3 14.4 33.6 4.8
843 3 16.0 32.0 3.2
844 1 17.6 33.6 4.8
845 3 19.2 32.0 3.2
846 1 20.8 33.6 4.8
847 3 22.4 32.0 3.2
848 2 24.0 33.6 4.8
849 1 25.6 32.0 3.2
850 2 27.2 33.6 4.8
851 2 28.8 32.0 3.2
852 2 30.4 33.6 4.8
853 3 32.0 32.0 3.2
854 2 33.6 33.6 4.8
855 2 35.2 32.0 3.2
856 2 36.8 33.6 4.8
857 3 38.4 32.0 3.2
858 2 40.0 33.6 4.8
859 3 41.6 32.0 3.2
860 3 43.2 33.6 4.8
861 2 44.8 32.0 3.2
862 2 46.4 33.6 4.8
863 1 48.0 32.0 3.2
864 3 49.6 33.6 4.8
865 1 0.0 35.2 3.2
866 3 1.6 36.8 4.8
867 1 3.2 35.2 3.2
868 3 4.8 36.8 4.8
869 1 6.4 35.2 3.2
870 3 8.0 36.8 4.8
871 1 9.6 35.2 3.2
872 3 11.2 36.8 4.8
873 3 12.8 35.2 3.2
874 2 14.4 36.8 4.8
875 3 16.0 35.2 3.2
876 1 17.6 36.8 4.8
877 3 19.2 35.2 3.2
878 1 20.8 36.8 4.8
879 2 22.4 35.2 3.2
880 2 24.0 36.8 4.8
881 1 25.6 35.2 3.2
882 3 27.2 36.8 4.8
883 1 28.8 35.2 3.2
884 3 30.4 36.8 4.8
885 2 32.0 35.2 3.2
886 3 33.6 36.8 4.8
887 2 35.2 35.2 3.2
888 2 36.8 36.8 4.8
889 2 38.4 35.2 3.2
890 3 40.0 36.8 4.8
891 1 41.6 35.2 3.2
892 3 43.2 36.8 4.8
893 1 44.8 35.2 3.2
894 2 46.4 36.8 4.8
895 1 48.0 35.2 3.2
896 2 49.6 36.8 4.8
897 1 0.0 38.4 3.2
898 3 1.6 40.0 4.8
899 1 3.2 38.4 3.2
900 3 4.8 40.0 4.8
901 1 6.4 38.4 3.2
902 3 8.0 40.0 4.8
903 1 9.6 38.4 3.2
904 2 11.2 40.0 4.8
905 3 12.8 38.4 3.2
906 1 14.4 40.0 4.8
907 3 16.0 38.4 3.2
908 1 17.6 40.0 4.8
909 2 19.2 38.4 3.2
910 1 20.8 40.0 4.8
911 2 22.4 38.4 3.2
912 1 24.0 40.0 4.8
913 1 25.6 38.4 3.2
914 2 27.2 40.0 4.8
915 1 28.8 38.4 3.2
916 3 30.4 40.0 4.8
917 1 32.0 38.4 3.2
918 3 33.6 40.0 4.8
919 2 35.2 38.4 3.2
920 3 36.8 40.0 4.8
921 2 38.4 38.4 3.2
922 2 40.0 40.0 4.8
923 2 41.6 38.4 3.2
924 2 43.2 40.0 4.8
925 1 44.8 38.4 3.2
926 2 46.4 40.0 4.8
927 1 48.0 38.4 3.2
928 3 49.6 40.0 4.8
929 1 0.0 41.6 3.2
930 2 1.6 43.2 4.8
931 1 3.2 41.6 3.2
932 3 4.8 43.2 4.8
933 1 6.4 41.6 3.2
934 3 8.0 43.2 4.8
935 1 9.6 41.6 3.2
936 3 11.2 43.2 4.8
937 2 12.8 41.6 3.2
938 2 14.4 43.2 4.8
939 2 16.0 41.6 3.2
940 1 17.6 43.2 4.8
941 3 19.2 41.6 3.2
942 1 20.8 43.2 4.8
943 2 22.4 41.6 3.2
944 1 24.0 43.2 4.8
945 2 25.6 41.6 3.2
946 2 27.2 43.2 4.8
947 1 28.8 41.6 3.2
948 3 30.4 43.2 4.8
949 2 32.0 41.6 3.2
950 2 33.6 43.2 4.8
951 3 35.2 41.6 3.2
952 2 36.8 43.2 4.8
953 2 38.4 41.6 3.2
954 1 40.0 43.2 4.8
955 2 41.6 41.6 3.2
956 2 43.2 43.2 4.8
957 1 44.8 41.6 3.2
958 3 46.4 43.2 4.8
959 1 48.0 41.6 3.2
960 3 49.6 43.2 4.8
961 1 0.0 44.8 3.2
962 2 1.6 46.4 4.8
963 1 3.2 44.8 3.2
964 3 4.8 46.4 4.8
965 1 6.4 44.8 3.2
966 3 8.0 46.4 4.8
967 1 9.6 44.8 3.2
968 1 11.2 46.4 4.8
969 3 12.8 44.8 3.2
970 1 14.4 46.4 4.8
971 3 16.0 44.8 3.2
972 1 17.6 46.4 4.8
973 2 19.2 44.8 3.2
974 1 20.8 46.4 4.8
975 2 22.4 44.8 3.2
976 1 24.0 46.4 4.8
977 1 25.6 44.8 3.2
978 2 27.2 46.4 4.8
979 1 28.8 44.8 3.2
980 3 30.4 46.4 4.8
981 1 32.0 44.8 3.2
982 3 33.6 46.4 4.8
983 2 35.2 44.8 3.2
984 2 36.8 46.4 4.8
985 2 38.4 44.8 3.2
986 2 40.0 46.4 4.8
987 2 41.6 44.8 3.2
988 2 43.2 46.4 4.8
989 1 44.8 44.8 3.2
990 2 46.4 46.4 4.8
991 1 48.0 44.8 3.2
992 3 49.6 46.4 4.8
993 1 0.0 48.0 3.2
994 2 1.6 49.6 4.8
995 1 3.2 48.0 3.2
996 3 4.8 49.6 4.8
997 1 6.4 48.0 3.2
998 3 8.0 49.6 4.8
999 2 9.6 48.0 3.2
1000 1 11.2 49.6 4.8
1001 2 12.8 48.0 3.2
1002 1 14.4 49.6 4.8
1003 3 16.0 48.0 3.2
1004 1 17.6 49.6 4.8
1005 3 19.2 48.0 3.2
1006 1 20.8 49.6 4.8
1007 3 22.4 48.0 3.2
1008 1 24.0 49.6 4.8
1009 2 25.6 48.0 3.2
1010 1 27.2 49.6 4.8
1011 1 28.8 48.0 3.2
1012 2 30.4 49.6 4.8
1013 1 32.0 48.0 3.2
1014 3 33.6 49.6 4.8
1015 1 35.2 48.0 3.2
1016 2 36.8 49.6 4.8
1017 1 38.4 48.0 3.2
1018 2 40.0 49.6 4.8
1019 1 41.6 48.0 3.2
1020 1 43.2 49.6 4.8
1021 1 44.8 48.0 3.2
1022 2 46.4 49.6 4.8
1023 1 48.0 48.0 3.2
1024 2 49.6 49.6 4.8
1025 2 0.0 0.0 6.4
1026 2 1.6 1.6 8.0
1027 2 3.2 0.0 6.4
1028 3 4.8 1.6 8.0
1029 1 6.4 0.0 6.4
1030 3 8.0 1.6 8.0
1031 1 9.6 0.0 6.4
1032 3 11.2 1.6 8.0
1033 2 12.8 0.0 6.4
1034 3 14.4 1.6 8.0
1035 2 16.0 0.0 6.4
1036 2 17.6 1.6 8.0
1037 3 19.2 0.0 6.4
1038 1 20.8 1.6 8.0
1039 3 22.4 0.0 6.4
1040 1 24.0 1.6 8.0
1041 3 25.6 0.0 6.4
1042 1 27.2 1.6 8.0
1043 2 28.8 0.0 6.4
1044 2 30.4 1.6 8.0
1045 1 32.0 0.0 6.4
1046 2 33.6 1.6 8.0
1047 1 35.2 0.0 6.4
1048 2 36.8 1.6 8.0
1049 3 38.4 0.0 6.4
1050 1 40.0 1.6 8.0
1051 3 41.6 0.0 6.4
1052 1 43.2 1.6 8.0
1053 3 44.8 0.0 6.4
1054 1 46.4 1.6 8.0
1055 3 48.0 0.0 6.4
1056 1 49.6 1.6 8.0
1057 3 0.0 3.2 6.4
1058 2 1.6 4.8 8.0
1059 2 3.2 3.2 6.4
1060 3 4.8 4.8 8.0
1061 1 6.4 3.2 6.4
1062 3 8.0 4.8 8.0
1063 1 9.6 3.2 6.4
1064 3 11.2 4.8 8.0
1065 2 12.8 3.2 6.4
1066 2 14.4 4.8 8.0
1067 1 16.0 3.2 6.4
1068 3 17.6 4.8 8.0
1069 2 19.2 3.2 6.4
1070 1 20.8 4.8 8.0
1071 3 22.4 3.2 6.4
1072 1 24.0 4.8 8.0
1073 2 25.6 3.2 6.4
1074 2 27.2 4.8 8.0
1075 1 28.8 3.2 6.4
1076 2 30.4 4.8 8.0
1077 2 32.0 3.2 6.4
1078 1 33.6 4.8 8.0
1079 2 35.2 3.2 6.4
1080 1 36.8 4.8 8.0
1081 3 38.4 3.2 6.4
1082 1 40.0 4.8 8.0
1083 3 41.6 3.2 6.4
1084 1 43.2 4.8 8.0
1085 2 44.8 3.2 6.4
1086 1 46.4 4.8 8.0
1087 2 48.0 3.2 6.4
1088 1 49.6 4.8 8.0
1089 2 0.0 6.4 6.4
1090 3 1.6 8.0 8.0
1091 1 3.2 6.4 6.4
1092 3 4.8 8.0 8.0
1093 1 6.4 6.4 6.4
1094 3 8.0 8.0 8.0
1095 1 9.6 6.4 6.4
1096 3 11.2 8.0 8.0
1097 1 12.8 6.4 6.4
1098 2 14.4 8.0 8.0
1099 1 16.0 6.4 6.4
1100 1 17.6 8.0 8.0
1101 3 19.2 6.4 6.4
1102 1 20.8 8.0 8.0
1103 3 22.4 6.4 6.4
1104 1 24.0 8.0 8.0
1105 3 25.6 6.4 6.4
1106 1 27.2 8.0 8.0
1107 2 28.8 6.4 6.4
1108 1 30.4 8.0 8.0
1109 3 32.0 6.4 6.4
1110 2 33.6 8.0 8.0
1111 2 35.2 6.4 6.4
1112 2 36.8 8.0 8.0
1113 2 38.4 6.4 6.4
1114 2 40.0 8.0 8.0
1115 2 41.6 6.4 6.4
1116 2 43.2 8.0 8.0
1117 3 44.8 6.4 6.4
1118 2 46.4 8.0 8.0
1119 2 48.0 6.4 6.4
1120 2 49.6 8.0 8.0
1121 1 0.0 9.6 6.4
1122 3 1.6 11.2 8.0
1123 1 3.2 9.6 6.4
1124 3 4.8 11.2 8.0
1125 1 6.4 9.6 6.4
1126 3 8.0 11.2 8.0
1127 1 9.6 9.6 6.4
1128 3 11.2 11.2 8.0
1129 1 12.8 9.6 6.4
1130 3 14.4 11.2 8.0
1131 2 16.0 9.6 6.4
1132 1 17.6 11.2 8.0
1133 3 19.2 9.6 6.4
1134 1 20.8 11.2 8.0
1135 3 22.4 9.6 6.4
1136 1 24.0 11.2 8.0
1137 2 25.6 9.6 6.4
1138 2 27.2 11.2 8.0
1139 2 28.8 9.6 6.4
1140 2 30.4 11.2 8.0
1141 2 32.0 9.6 6.4
1142 2 33.6 11.2 8.0
1143 2 35.2 9.6 6.4
1144 2 36.8 11.2 8.0
1145 1 38.4 9.6 6.4
1146 2 40.0 11.2 8.0
1147 1 41.6 9.6 6.4
1148 3 43.2 11.2 8.0
1149 1 44.8 9.6 6.4
1150 3 46.4 11.2 8.0
1151 1 48.0 9.6 6.4
1152 2 49.6 11.2 8.0
1153 1 0.0 12.8 6.4
1154 3 1.6 14.4 8.0
1155 1 3.2 12.8 6.4
1156 3 4.8 14.4 8.0
1157 1 6.4 12.8 6.4
1158 3 8.0 14.4 8.0
1159 1 9.6 12.8 6.4
1160 3 11.2 14.4 8.0
1161 1 12.8 12.8 6.4
1162 3 14.4 14.4 8.0
1163 1 16.0 12.8 6.4
1164 3 17.6 14.4 8.0
1165 1 19.2 12.8 6.4
1166 3 20.8 14.4 8.0
1167 1 22.4 12.8 6.4
1168 2 24.0 14.4 8.0
1169 2 25.6 12.8 6.4
1170 3 27.2 14.4 8.0
1171 2 28.8 12.8 6.4
1172 3 30.4 14.4 8.0
1173 1 32.0 12.8 6.4
1174 3 33.6 14.4 8.0
1175 1 35.2 12.8 6.4
1176 3 36.8 14.4 8.0
1177 1 38.4 12.8 6.4
1178 2 40.0 14.4 8.0
1179 1 41.6 12.8 6.4
1180 3 43.2 14.4 8.0
1181 1 44.8 12.8 6.4
1182 3 46.4 14.4 8.0
1183 1 48.0 12.8 6.4
1184 3 49.6 14.4 8.0
1185 1 0.0 16.0 6.4
1186 3 1.6 17.6 8.0
1187 1 3.2 16.0 6.4
1188 3 4.8 17.6 8.0
1189 1 6.4 16.0 6.4
1190 3 8.0 17.6 8.0
1191 1 9.6 16.0 6.4
1192 3 11.2 17.6 8.0
1193 1 12.8 16.0 6.4
1194 3 14.4 17.6 8.0
1195 1 16.0 16.0 6.4
1196 3 17.6 17.6 8.0
1197 1 19.2 16.0 6.4
1198 3 20.8 17.6 8.0
1199 1 22.4 16.0 6.4
1200 2 24.0 17.6 8.0
1201 2 25.6 16.0 6.4
1202 2 27.2 17.6 8.0
1203 1 28.8 16.0 6.4
1204 2 30.4 17.6 8.0
1205 1 32.0 16.0 6.4
1206 3 33.6 17.6 8.0
1207 1 35.2 16.0 6.4
1208 3 36.8 17.6 8.0
1209 1 38.4 16.0 6.4
1210 3 40.0 17.6 8.0
1211 1 41.6 16.0 6.4
1212 3 43.2 17.6 8.0
1213 1 44.8 16.0 6.4
1214 3 46.4 17.6 8.0
1215 1 48.0 16.0 6.4
1216 3 49.6 17.6 8.0
1217 1 0.0 19.2 6.4
1218 3 1.6 20.8 8.0
1219 1 3.2 19.2 6.4
1220 3 4.8 20.8 8.0
1221 1 6.4 19.2 6.4
1222 2 8.0 20.8 8.0
1223 1 9.6 19.2 6.4
1224 3 11.2 20.8 8.0
1225 1 12.8 19.2 6.4
1226 3 14.4 20.8 8.0
1227 1 16.0 19.2 6.4
1228 3 17.6 20.8 8.0
1229 1 19.2 19.2 6.4
1230 3 20.8 20.8 8.0
1231 2 22.4 19.2 6.4
1232 1 24.0 20.8 8.0
1233 3 25.6 19.2 6.4
1234 1 27.2 20.8 8.0
1235 2 28.8 19.2 6.4
1236 1 30.4 20.8 8.0
1237 2 32.0 19.2 6.4
1238 2 33.6 20.8 8.0
1239 1 35.2 19.2 6.4
1240 2 36.8 20.8 8.0
1241 1 38.4 19.2 6.4
1242 2 40.0 20.8 8.0
1243 1 41.6 19.2 6.4
1244 3 43.2 20.8 8.0
1245 1 44.8 19.2 6.4
1246 3 46.4 20.8 8.0
1247 1 48.0 19.2 6.4
1248 3 49.6 20.8 8.0
1249 1 0.0 22.4 6.4
1250 3 1.6 24.0 8.0
1251 1 3.2 22.4 6.4
1252 2 4.8 24.0 8.0
1253 2 6.4 22.4 6.4
1254 1 8.0 24.0 8.0
1255 1 9.6 22.4 6.4
1256 3 11.2 24.0 8.0
1257 1 12.8 22.4 6.4
1258 3 14.4 24.0 8.0
1259 1 16.0 22.4 6.4
1260 3 17.6 24.0 8.0
1261 1 19.2 22.4 6.4
1262 2 20.8 24.0 8.0
1263 2 22.4 22.4 6.4
1264 1 24.0 24.0 8.0
1265 3 25.6 22.4 6.4
1266 1 27.2 24.0 8.0
1267 3 28.8 22.4 6.4
1268 1 30.4 24.0 8.0
1269 2 32.0 22.4 6.4
1270 1 33.6 24.0 8.0
1271 2 35.2 22.4 6.4
1272 1 36.8 24.0 8.0
1273 3 38.4 22.4 6.4
1274 1 40.0 24.0 8.0
1275 3 41.6 22.4 6.4
1276 1 43.2 24.0 8.0
1277 2 44.8 22.4 6.4
1278 2 46.4 24.0 8.0
1279 1 48.0 22.4 6.4
1280 2 49.6 24.0 8.0
1281 2 0.0 25.6 6.4
1282 1 1.6 27.2 8.0
1283 3 3.2 25.6 6.4
1284 1 4.8 27.2 8.0
1285 2 6.4 25.6 6.4
1286 1 8.0 27.2 8.0
1287 2 9.6 25.6 6.4
1288 3 11.2 27.2 8.0
1289 1 12.8 25.6 6.4
1290 3 14.4 27.2 8.0
1291 1 16.0 25.6 6.4
1292 2 17.6 27.2 8.0
1293 1 19.2 25.6 6.4
1294 2 20.8 27.2 8.0
1295 3 22.4 25.6 6.4
1296 1 24.0 27.2 8.0
1297 3 25.6 25.6 6.4
1298 1 27.2 27.2 8.0
1299 3 28.8 25.6 6.4
1300 1 30.4 27.2 8.0
1301 3 32.0 25.6 6.4
1302 1 33.6 27.2 8.0
1303 3 35.2 25.6 6.4
1304 1 36.8 27.2 8.0
1305 2 38.4 25.6 6.4
1306 1 40.0 27.2 8.0
1307 3 41.6 25.6 6.4
1308 1 43.2 27.2 8.0
1309 2 44.8 25.6 6.4
1310 1 46.4 27.2 8.0
1311 2 48.0 25.6 6.4
1312 1 49.6 27.2 8.0
1313 2 0.0 28.8 6.4
1314 2 1.6 30.4 8.0
1315 2 3.2 28.8 6.4
1316 2 4.8 30.4 8.0
1317 3 6.4 28.8 6.4
1318 2 8.0 30.4 8.0
1319 2 9.6 28.8 6.4
1320 3 11.2 30.4 8.0
1321 1 12.8 28.8 6.4
1322 3 14.4 30.4 8.0
1323 2 16.0 28.8 6.4
1324 1 17.6 30.4 8.0
1325 2 19.2 28.8 6.4
1326 1 20.8 30.4 8.0
1327 2 22.4 28.8 6.4
1328 1 24.0 30.4 8.0
1329 3 25.6 28.8 6.4
1330 1 27.2 30.4 8.0
1331 3 28.8 28.8 6.4
1332 1 30.4 30.4 8.0
1333 3 32.0 28.8 6.4
1334 2 33.6 30.4 8.0
1335 2 35.2 28.8 6.4
1336 2 36.8 30.4 8.0
1337 3 38.4 28.8 6.4
1338 1 40.0 30.4 8.0
1339 3 41.6 28.8 6.4
1340 1 43.2 30.4 8.0
1341 3 44.8 28.8 6.4
1342 1 46.4 30.4 8.0
1343 3 48.0 28.8 6.4
1344 2 49.6 30.4 8.0
1345 1 0.0 32.0 6.4
1346 3 1.6 33.6 8.0
1347 1 3.2 32.0 6.4
1348 2 4.8 33.6 8.0
1349 1 6.4 32.0 6.4
1350 3 8.0 33.6 8.0
1351 1 9.6 32.0 6.4
1352 2 11.2 33.6 8.0
1353 1 12.8 32.0 6.4
1354 2 14.4 33.6 8.0
1355 2 16.0 32.0 6.4
1356 1 17.6 33.6 8.0
1357 3 19.2 32.0 6.4
1358 1 20.8 33.6 8.0
1359 3 22.4 32.0 6.4
1360 2 24.0 33.6 8.0
1361 2 25.6 32.0 6.4
1362 2 27.2 33.6 8.0
1363 2 28.8 32.0 6.4
1364 2 30.4 33.6 8.0
1365 2 32.0 32.0 6.4
1366 2 33.6 33.6 8.0
1367 2 35.2 32.0 6.4
1368 2 36.8 33.6 8.0
1369 2 38.4 32.0 6.4
1370 2 40.0 33.6 8.0
1371 2 41.6 32.0 6.4
1372 2 43.2 33.6 8.0
1373 2 44.8 32.0 6.4
1374 2 46.4 33.6 8.0
1375 1 48.0 32.0 6.4
1376 2 49.6 33.6 8.0
1377 1 0.0 35.2 6.4
1378 3 1.6 36.8 8.0
1379 1 3.2 35.2 6.4
1380 3 4.8 36.8 8.0
1381 1 6.4 35.2 6.4
1382 3 8.0 36.8 8.0
1383 1 9.6 35.2 6.4
1384 3 11.2 36.8 8.0
1385 1 12.8 35.2 6.4
1386 2 14.4 36.8 8.0
1387 2 16.0 35.2 6.4
1388 1 17.6 36.8 8.0
1389 2 19.2 35.2 6.4
1390 1 20.8 36.8 8.0
1391 2 22.4 35.2 6.4
1392 1 24.0 36.8 8.0
1393 1 25.6 35.2 6.4
1394 2 27.2 36.8 8.0
1395 1 28.8 35.2 6.4
1396 2 30.4 36.8 8.0
1397 1 32.0 35.2 6.4
1398 3 33.6 36.8 8.0
1399 1 35.2 35.2 6.4
1400 3 36.8 36.8 8.0
1401 1 38.4 35.2 6.4
1402 3 40.0 36.8 8.0
1403 1 41.6 35.2 6.4
1404 3 43.2 36.8 8.0
1405 1 44.8 35.2 6.4
1406 2 46.4 36.8 8.0
1407 1 48.0 35.2 6.4
1408 3 49.6 36.8 8.0
1409 1 0.0 38.4 6.4
1410 3 1.6 40.0 8.0
1411 1 3.2 38.4 6.4
1412 3 4.8 40.0 8.0
1413 1 6.4 38.4 6.4
1414 3 8.0 40.0 8.0
1415 1 9.6 38.4 6.4
1416 3 11.2 40.0 8.0
1417 2 12.8 38.4 6.4
1418 2 14.4 40.0 8.0
1419 3 16.0 38.4 6.4
1420 1 17.6 40.0 8.0
1421 3 19.2 38.4 6.4
1422 1 20.8 40.0 8.0
1423 3 22.4 38.4 6.4
1424 1 24.0 40.0 8.0
1425 2 25.6 38.4 6.4
1426 2 27.2 40.0 8.0
1427 1 28.8 38.4 6.4
1428 3 30.4 40.0 8.0
1429 1 32.0 38.4 6.4
1430 3 33.6 40.0 8.0
1431 1 35.2 38.4 6.4
1432 3 36.8 40.0 8.0
1433 1 38.4 38.4 6.4
1434 3 40.0 40.0 8.0
1435 1 41.6 38.4 6.4
1436 3 43.2 40.0 8.0
1437 1 44.8 38.4 6.4
1438 3 46.4 40.0 8.0
1439 1 48.0 38.4 6.4
1440 3 49.6 40.0 8.0
1441 1 0.0 41.6 6.4
1442 3 1.6 43.2 8.0
1443 1 3.2 41.6 6.4
1444 2 4.8 43.2 8.0
1445 1 6.4 41.6 6.4
1446 2 8.0 43.2 8.0
1447 1 9.6 41.6 6.4
1448 3 11.2 43.2 8.0
1449 2 12.8 41.6 6.4
1450 1 14.4 43.2 8.0
1451 2 16.0 41.6 6.4
1452 1 17.6 43.2 8.0
1453 3 19.2 41.6 6.4
1454 1 20.8 43.2 8.0
1455 3 22.4 41.6 6.4
1456 1 24.0 43.2 8.0
1457 3 25.6 41.6 6.4
1458 2 27.2 43.2 8.0
1459 1 28.8 41.6 6.4
1460 3 30.4 43.2 8.0
1461 1 32.0 41.6 6.4
1462 3 33.6 43.2 8.0
1463 1 35.2 41.6 6.4
1464 2 36.8 43.2 8.0
1465 1 38.4 41.6 6.4
1466 3 40.0 43.2 8.0
1467 1 41.6 41.6 6.4
1468 3 43.2 43.2 8.0
1469 1 44.8 41.6 6.4
1470 3 46.4 43.2 8.0
1471 2 48.0 41.6 6.4
1472 3 49.6 43.2 8.0
1473 2 0.0 44.8 6.4
1474 2 1.6 46.4 8.0
1475 1 3.2 44.8 6.4
1476 2 4.8 46.4 8.0
1477 1 6.4 44.8 6.4
1478 3 8.0 46.4 8.0
1479 1 9.6 44.8 6.4
1480 2 11.2 46.4 8.0
1481 2 12.8 44.8 6.4
1482 2 14.4 46.4 8.0
1483 2 16.0 44.8 6.4
1484 1 17.6 46.4 8.0
1485 3 19.2 44.8 6.4
1486 1 20.8 46.4 8.0
1487 3 22.4 44.8 6.4
1488 1 24.0 46.4 8.0
1489 3 25.6 44.8 6.4
1490 2 27.2 46.4 8.0
1491 1 28.8 44.8 6.4
1492 3 30.4 46.4 8.0
1493 1 32.0 44.8 6.4
1494 3 33.6 46.4 8.0
1495 1 35.2 44.8 6.4
1496 2 36.8 46.4 8.0
1497 2 38.4 44.8 6.4
1498 2 40.0 46.4 8.0
1499 1 41.6 44.8 6.4
1500 2 43.2 46.4 8.0