ITEM: TIMESTEP
0
ITEM: NUMBER OF ATOMS
8192
ITEM: BOX BOUNDS pp pp pp
0.0000000000000000e+00 5.1200000000000003e+01
0.0000000000000000e+00 5.1200000000000003e+01
0.0000000000000000e+00 5.1200000000000003e+01
ITEM: ATOMS id type x y z c_eng
1 1 0 0 0 -11.7799
2 3 1.6 1.6 1.6 -11.3613
3 1 3.2 0 0 -11.8394
4 3 4.8 1.6 1.6 -11.2991
5 1 6.4 0 0 -11.8406
6 3 8 1.6 1.6 -11.336
7 2 9.6 0 0 -9.8652
8 2 11.2 1.6 1.6 -9.79631
9 2 12.8 0 0 -9.74682
10 3 14.4 1.6 1.6 -11.2779
11 2 16 0 0 -9.93479
12 2 17.6 1.6 1.6 -9.89071
13 3 19.2 0 0 -11.2663
14 1 20.8 1.6 1.6 -11.8015
15 2 22.4 0 0 -9.89639
16 2 24 1.6 1.6 -9.80816
17 1 25.6 0 0 -11.8184
18 3 27.2 1.6 1.6 -11.2399
19 1 28.8 0 0 -11.8413
20 3 30.4 1.6 1.6 -11.3346
21 1 32 0 0 -11.8677
22 3 33.6 1.6 1.6 -11.3825
23 1 35.2 0 0 -11.8412
24 2 36.8 1.6 1.6 -9.89765
25 1 38.4 0 0 -11.8535
26 3 40 1.6 1.6 -11.35
27 1 41.6 0 0 -11.8121
28 2 43.2 1.6 1.6 -9.86413
29 1 44.8 0 0 -11.7884
30 3 46.4 1.6 1.6 -11.227
31 1 48 0 0 -11.7501
32 3 49.6 1.6 1.6 -11.2397
33 1 0 3.2 0 -11.825
34 2 1.6 4.8 1.6 -9.75557
35 2 3.2 3.2 0 -9.84346
36 2 4.8 4.8 1.6 -9.84349
37 1 6.4 3.2 0 -11.8442
38 3 8 4.8 1.6 -11.2995
39 1 9.6 3.2 0 -11.7568
40 3 11.2 4.8 1.6 -11.3023
41 1 12.8 3.2 0 -11.7384
42 3 14.4 4.8 1.6 -11.2721
43 1 16 3.2 0 -11.8174
44 2 17.6 4.8 1.6 -9.84005
45 2 19.2 3.2 0 -9.87245
46 1 20.8 4.8 1.6 -11.7048
47 2 22.4 3.2 0 -9.84758
48 2 24 4.8 1.6 -9.8086
49 1 25.6 3.2 0 -11.8132
50 3 27.2 4.8 1.6 -11.3594
51 1 28.8 3.2 0 -11.8411
52 3 30.4 4.8 1.6 -11.3
53 1 32 3.2 0 -11.8415
54 2 33.6 4.8 1.6 -9.86462
55 2 35.2 3.2 0 -9.83765
56 2 36.8 4.8 1.6 -9.84308
57 1 38.4 3.2 0 -11.8436
58 3 40 4.8 1.6 -11.2248
59 1 41.6 3.2 0 -11.7832
60 2 43.2 4.8 1.6 -9.72907
61 1 44.8 3.2 0 -11.7304
62 2 46.4 4.8 1.6 -9.73675
63 1 48 3.2 0 -11.7623
64 2 49.6 4.8 1.6 -9.76694
65 1 0 6.4 0 -11.745
66 3 1.6 8 1.6 -11.1243
67 1 3.2 6.4 0 -11.7563
68 2 4.8 8 1.6 -9.7761
69 2 6.4 6.4 0 -9.76532
70 3 8 8 1.6 -11.1887
71 2 9.6 6.4 0 -9.82321
72 3 11.2 8 1.6 -11.3091
73 1 12.8 6.4 0 -11.8419
74 3 14.4 8 1.6 -11.2039
75 1 16 6.4 0 -11.8141
76 2 17.6 8 1.6 -9.7908
77 2 19.2 6.4 0 -9.73801
78 1 20.8 8 1.6 -11.6257
79 2 22.4 6.4 0 -9.79779
80 1 24 8 1.6 -11.6533
81 2 25.6 6.4 0 -9.88883
82 3 27.2 8 1.6 -11.255
83 1 28.8 6.4 0 -11.8661
84 3 30.4 8 1.6 -11.1899
85 1 32 6.4 0 -11.7819
86 2 33.6 8 1.6 -9.8487
87 1 35.2 6.4 0 -11.8469
88 3 36.8 8 1.6 -11.2712
89 1 38.4 6.4 0 -11.8111
90 3 40 8 1.6 -11.2394
91 1 41.6 6.4 0 -11.7983
92 2 43.2 8 1.6 -9.74686
93 1 44.8 6.4 0 -11.6971
94 2 46.4 8 1.6 -9.74841
95 2 48 6.4 0 -9.82481
96 3 49.6 8 1.6 -11.2659
97 1 0 9.6 0 -11.855
98 3 1.6 11.2 1.6 -11.242
99 1 3.2 9.6 0 -11.784
100 3 4.8 11.2 1.6 -11.1639
101 1 6.4 9.6 0 -11.6965
102 2 8 11.2 1.6 -9.77598
103 1 9.6 9.6 0 -11.7667
104 3 11.2 11.2 1.6 -11.2384
105 1 12.8 9.6 0 -11.8117
106 3 14.4 11.2 1.6 -11.2045
107 1 16 9.6 0 -11.812
108 3 17.6 11.2 1.6 -11.2394
109 1 19.2 9.6 0 -11.7018
110 3 20.8 11.2 1.6 -11.2276
111 2 22.4 9.6 0 -9.7719
112 2 24 11.2 1.6 -9.74764
113 1 25.6 9.6 0 -11.7865
114 3 27.2 11.2 1.6 -11.1595
115 1 28.8 9.6 0 -11.7823
116 2 30.4 11.2 1.6 -9.72182
117 1 32 9.6 0 -11.7833
118 2 33.6 11.2 1.6 -9.76413
119 2 35.2 9.6 0 -9.75614
120 3 36.8 11.2 1.6 -11.2745
121 1 38.4 9.6 0 -11.8676
122 3 40 11.2 1.6 -11.2423
123 1 41.6 9.6 0 -11.8116
124 3 43.2 11.2 1.6 -11.1642
125 1 44.8 9.6 0 -11.7579
126 2 46.4 11.2 1.6 -9.77555
127 2 48 9.6 0 -9.83478
128 3 49.6 11.2 1.6 -11.2738
129 1 0 12.8 0 -11.8401
130 3 1.6 14.4 1.6 -11.3073
131 1 3.2 12.8 0 -11.8415
132 3 4.8 14.4 1.6 -11.2045
133 1 6.4 12.8 0 -11.7884
134 3 8 14.4 1.6 -11.2391
135 2 9.6 12.8 0 -9.72421
136 3 11.2 14.4 1.6 -11.2712
137 1 12.8 12.8 0 -11.7877
138 2 14.4 14.4 1.6 -9.75836
139 1 16 12.8 0 -11.8144
140 3 17.6 14.4 1.6 -11.2748
141 1 19.2 12.8 0 -11.8114
142 3 20.8 14.4 1.6 -11.3001
143 1 22.4 12.8 0 -11.7168
144 1 24 14.4 1.6 -11.6324
145 2 25.6 12.8 0 -9.76194
146 2 27.2 14.4 1.6 -9.76048
147 1 28.8 12.8 0 -11.7779
148 2 30.4 14.4 1.6 -9.78021
149 1 32 12.8 0 -11.7899
150 2 33.6 14.4 1.6 -9.86269
151 1 35.2 12.8 0 -11.7795
152 3 36.8 14.4 1.6 -11.1987
153 1 38.4 12.8 0 -11.8278
154 3 40 14.4 1.6 -11.2045
155 1 41.6 12.8 0 -11.814
156 3 43.2 14.4 1.6 -11.2042
157 1 44.8 12.8 0 -11.7817
158 3 46.4 14.4 1.6 -11.2369
159 1 48 12.8 0 -11.8927
160 3 49.6 14.4 1.6 -11.3116
161 1 0 16 0 -11.7274
162 2 1.6 17.6 1.6 -9.80165
163 1 3.2 16 0 -11.7294
164 2 4.8 17.6 1.6 -9.7819
165 1 6.4 16 0 -11.7194
166 3 8 17.6 1.6 -11.1191
167 1 9.6 16 0 -11.8184
168 2 11.2 17.6 1.6 -9.7546
169 2 12.8 16 0 -9.7432
170 1 14.4 17.6 1.6 -11.5801
171 2 16 16 0 -9.75618
172 3 17.6 17.6 1.6 -11.2345
173 1 19.2 16 0 -11.8788
174 3 20.8 17.6 1.6 -11.3729
175 3 22.4 16 0 -11.2884
176 1 24 17.6 1.6 -11.7672
177 2 25.6 16 0 -9.83505
178 2 27.2 17.6 1.6 -9.72509
179 1 28.8 16 0 -11.7266
180 2 30.4 17.6 1.6 -9.80843
181 2 32 16 0 -9.82731
182 2 33.6 17.6 1.6 -9.83274
183 1 35.2 16 0 -11.7869
184 2 36.8 17.6 1.6 -9.77619
185 1 38.4 16 0 -11.7283
186 3 40 17.6 1.6 -11.1654
187 1 41.6 16 0 -11.7872
188 3 43.2 17.6 1.6 -11.2736
189 1 44.8 16 0 -11.8383
190 2 46.4 17.6 1.6 -9.82386
191 2 48 16 0 -9.78026
192 1 49.6 17.6 1.6 -11.7272
193 3 0 19.2 0 -11.038
194 1 1.6 20.8 1.6 -11.7691
195 2 3.2 19.2 0 -9.79073
196 2 4.8 20.8 1.6 -9.81346
197 1 6.4 19.2 0 -11.7309
198 2 8 20.8 1.6 -9.82198
199 2 9.6 19.2 0 -9.84146
200 1 11.2 20.8 1.6 -11.7302
201 2 12.8 19.2 0 -9.8365
202 2 14.4 20.8 1.6 -9.73286
203 2 16 19.2 0 -9.74092
204 3 17.6 20.8 1.6 -11.2016
205 1 19.2 19.2 0 -11.7972
206 2 20.8 20.8 1.6 -9.84321
207 3 22.4 19.2 0 -11.375
208 1 24 20.8 1.6 -11.8543
209 3 25.6 19.2 0 -11.2271
210 1 27.2 20.8 1.6 -11.7587
211 1 28.8 19.2 0 -11.6631
212 1 30.4 20.8 1.6 -11.7301
213 2 32 19.2 0 -9.80901
214 1 33.6 20.8 1.6 -11.7291
215 1 35.2 19.2 0 -11.6738
216 2 36.8 20.8 1.6 -9.87425
217 1 38.4 19.2 0 -11.7416
218 3 40 20.8 1.6 -11.3342
219 1 41.6 19.2 0 -11.7889
220 2 43.2 20.8 1.6 -9.84796
221 1 44.8 19.2 0 -11.7395
222 1 46.4 20.8 1.6 -11.5835
223 2 48 19.2 0 -9.72574
224 1 49.6 20.8 1.6 -11.6627
225 2 0 22.4 0 -9.87565
226 2 1.6 24 1.6 -9.9578
227 2 3.2 22.4 0 -9.80614
228 2 4.8 24 1.6 -9.84818
229 1 6.4 22.4 0 -11.715
230 1 8 24 1.6 -11.7093
231 2 9.6 22.4 0 -9.85886
232 2 11.2 24 1.6 -9.87734
233 2 12.8 22.4 0 -9.86707
234 2 14.4 24 1.6 -9.95032
235 1 16 22.4 0 -11.7597
236 3 17.6 24 1.6 -11.1936
237 1 19.2 22.4 0 -11.6709
238 1 20.8 24 1.6 -11.6684
239 3 22.4 22.4 0 -11.2327
240 1 24 24 1.6 -11.841
241 3 25.6 22.4 0 -11.2751
242 1 27.2 24 1.6 -11.8413
243 3 28.8 22.4 0 -11.2689
244 1 30.4 24 1.6 -11.8415
245 3 32 22.4 0 -11.2753
246 1 33.6 24 1.6 -11.8415
247 3 35.2 22.4 0 -11.2687
248 1 36.8 24 1.6 -11.8673
249 3 38.4 22.4 0 -11.3824
250 1 40 24 1.6 -11.8208
251 2 41.6 22.4 0 -9.82957
252 1 43.2 24 1.6 -11.7045
253 2 44.8 22.4 0 -9.73954
254 2 46.4 24 1.6 -9.78648
255 2 48 22.4 0 -9.72074
256 2 49.6 24 1.6 -9.87445
257 3 0 25.6 0 -11.3058
259 2 3.2 25.6 0 -9.92398
261 2 6.4 25.6 0 -9.79484
263 2 9.6 25.6 0 -9.83341
265 2 12.8 25.6 0 -9.89272
267 1 16 25.6 0 -11.8357
269 2 19.2 25.6 0 -9.77066
271 3 22.4 25.6 0 -11.2878
273 3 25.6 25.6 0 -11.3002
275 3 28.8 25.6 0 -11.2042
277 3 32 25.6 0 -11.242
279 3 35.2 25.6 0 -11.2036
281 3 38.4 25.6 0 -11.1642
283 2 41.6 25.6 0 -9.677
285 2 44.8 25.6 0 -9.79112
287 1 48 25.6 0 -11.7228
258 2 1.6 27.2 1.6 -9.82773
289 1 0 28.8 0 -11.6025
260 2 4.8 27.2 1.6 -9.78419
291 2 3.2 28.8 0 -9.70125
262 1 8 27.2 1.6 -11.7192
293 3 6.4 28.8 0 -11.294
264 1 11.2 27.2 1.6 -11.6921
295 2 9.6 28.8 0 -9.78895
266 2 14.4 27.2 1.6 -9.85804
297 2 12.8 28.8 0 -9.72242
268 2 17.6 27.2 1.6 -9.88957
299 2 16 28.8 0 -9.83465
270 2 20.8 27.2 1.6 -9.81108
301 3 19.2 28.8 0 -11.1862
272 2 24 27.2 1.6 -9.82279
303 1 22.4 28.8 0 -11.7358
305 2 25.6 28.8 0 -9.78874
274 1 27.2 27.2 1.6 -11.8416
307 3 28.8 28.8 0 -11.2959
276 1 30.4 27.2 1.6 -11.8414
309 3 32 28.8 0 -11.302
278 1 33.6 27.2 1.6 -11.8124
311 2 35.2 28.8 0 -9.735
280 1 36.8 27.2 1.6 -11.8124
313 3 38.4 28.8 0 -11.2042
282 1 40 27.2 1.6 -11.8124
315 3 41.6 28.8 0 -11.2705
284 1 43.2 27.2 1.6 -11.8094
317 3 44.8 28.8 0 -11.2934
286 2 46.4 27.2 1.6 -9.80497
319 1 48 28.8 0 -11.6161
288 2 49.6 27.2 1.6 -9.79071
290 2 1.6 30.4 1.6 -9.70305
321 2 0 32 0 -9.84103
292 1 4.8 30.4 1.6 -11.6808
323 2 3.2 32 0 -9.75354
294 1 8 30.4 1.6 -11.7318
325 2 6.4 32 0 -9.84677
296 1 11.2 30.4 1.6 -11.6157
327 3 9.6 32 0 -11.2897
298 1 14.4 30.4 1.6 -11.6993
329 3 12.8 32 0 -11.2314
300 1 17.6 30.4 1.6 -11.7033
331 3 16 32 0 -11.1663
302 2 20.8 30.4 1.6 -9.73959
333 2 19.2 32 0 -9.76004
304 2 24 30.4 1.6 -9.81436
335 1 22.4 32 0 -11.6717
337 1 25.6 32 0 -11.7399
306 1 27.2 30.4 1.6 -11.766
339 2 28.8 32 0 -9.82841
308 1 30.4 30.4 1.6 -11.8535
341 3 32 32 0 -11.3314
310 1 33.6 30.4 1.6 -11.8119
343 3 35.2 32 0 -11.2039
312 1 36.8 30.4 1.6 -11.7826
345 3 38.4 32 0 -11.2746
314 1 40 30.4 1.6 -11.8416
347 3 41.6 32 0 -11.4652
316 1 43.2 30.4 1.6 -11.8933
349 3 44.8 32 0 -11.4493
318 2 46.4 30.4 1.6 -9.90228
351 3 48 32 0 -11.3256
320 2 49.6 30.4 1.6 -9.76606
322 3 1.6 33.6 1.6 -11.2675
353 1 0 35.2 0 -11.7476
324 2 4.8 33.6 1.6 -9.79285
355 1 3.2 35.2 0 -11.6745
326 2 8 33.6 1.6 -9.87915
357 2 6.4 35.2 0 -9.80152
328 3 11.2 33.6 1.6 -11.3629
359 3 9.6 35.2 0 -11.3354
330 1 14.4 33.6 1.6 -11.8589
361 3 12.8 35.2 0 -11.388
332 1 17.6 33.6 1.6 -11.7498
363 3 16 35.2 0 -11.2394
334 1 20.8 33.6 1.6 -11.6674
365 2 19.2 35.2 0 -9.70199
336 3 24 33.6 1.6 -11.2563
367 1 22.4 35.2 0 -11.6837
369 1 25.6 35.2 0 -11.8116
338 2 27.2 33.6 1.6 -9.7885
371 1 28.8 35.2 0 -11.7198
340 1 30.4 33.6 1.6 -11.7602
373 3 32 35.2 0 -11.2658
342 1 33.6 33.6 1.6 -11.8669
375 3 35.2 35.2 0 -11.2432
344 1 36.8 33.6 1.6 -11.7882
377 3 38.4 35.2 0 -11.1638
346 2 40 33.6 1.6 -9.76634
379 2 41.6 35.2 0 -9.87328
348 2 43.2 33.6 1.6 -9.94888
381 1 44.8 35.2 0 -11.8082
350 3 46.4 33.6 1.6 -11.3898
383 2 48 35.2 0 -9.82019
352 3 49.6 33.6 1.6 -11.3862
354 3 1.6 36.8 1.6 -11.0813
385 1 0 38.4 0 -11.69
356 3 4.8 36.8 1.6 -11.2404
387 1 3.2 38.4 0 -11.6897
358 3 8 36.8 1.6 -11.2675
389 1 6.4 38.4 0 -11.7749
360 3 11.2 36.8 1.6 -11.3065
391 1 9.6 38.4 0 -11.7334
362 1 14.4 36.8 1.6 -11.8037
393 3 12.8 38.4 0 -11.2955
364 1 17.6 36.8 1.6 -11.8142
395 3 16 38.4 0 -11.3615
366 1 20.8 36.8 1.6 -11.69
397 2 19.2 38.4 0 -9.84617
368 3 24 36.8 1.6 -11.261
399 1 22.4 38.4 0 -11.7502
401 1 25.6 38.4 0 -11.8116
370 3 27.2 36.8 1.6 -11.1663
403 1 28.8 38.4 0 -11.8142
372 2 30.4 36.8 1.6 -9.77474
405 2 32 38.4 0 -9.85828
374 1 33.6 36.8 1.6 -11.8256
407 3 35.2 38.4 0 -11.2691
376 1 36.8 36.8 1.6 -11.7439
409 3 38.4 38.4 0 -11.1666
378 1 40 36.8 1.6 -11.6699
411 2 41.6 38.4 0 -9.75039
380 2 43.2 36.8 1.6 -9.84942
413 1 44.8 38.4 0 -11.7595
382 2 46.4 36.8 1.6 -9.8485
415 1 48 38.4 0 -11.8189
384 3 49.6 36.8 1.6 -11.2003
386 2 1.6 40 1.6 -9.70717
417 1 0 41.6 0 -11.7833
388 3 4.8 40 1.6 -11.2045
419 1 3.2 41.6 0 -11.7826
390 3 8 40 1.6 -11.1654
421 1 6.4 41.6 0 -11.8137
392 2 11.2 40 1.6 -9.83227
423 1 9.6 41.6 0 -11.7402
394 1 14.4 40 1.6 -11.7709
425 3 12.8 41.6 0 -11.3087
396 2 17.6 40 1.6 -9.83415
427 3 16 41.6 0 -11.3836
398 2 20.8 40 1.6 -9.80875
429 2 19.2 41.6 0 -9.80945
400 2 24 40 1.6 -9.81787
431 1 22.4 41.6 0 -11.7299
433 1 25.6 41.6 0 -11.7873
402 3 27.2 40 1.6 -11.2355
435 2 28.8 41.6 0 -9.79552
404 2 30.4 40 1.6 -9.81569
437 2 32 41.6 0 -9.85662
406 1 33.6 40 1.6 -11.7755
439 3 35.2 41.6 0 -11.2298
408 1 36.8 40 1.6 -11.8023
441 3 38.4 41.6 0 -11.2039
410 1 40 40 1.6 -11.6923
443 1 41.6 41.6 0 -11.6086
412 2 43.2 40 1.6 -9.83765
445 1 44.8 41.6 0 -11.7522
414 3 46.4 40 1.6 -11.161
447 1 48 41.6 0 -11.812
416 3 49.6 40 1.6 -11.2051
418 3 1.6 43.2 1.6 -11.1248
449 1 0 44.8 0 -11.7803
420 3 4.8 43.2 1.6 -11.2048
451 1 3.2 44.8 0 -11.8189
422 3 8 43.2 1.6 -11.1654
453 1 6.4 44.8 0 -11.8162
424 2 11.2 43.2 1.6 -9.83422
455 1 9.6 44.8 0 -11.8013
426 1 14.4 43.2 1.6 -11.8191
457 2 12.8 44.8 0 -9.89006
428 1 17.6 43.2 1.6 -11.7423
459 2 16 44.8 0 -9.88559
430 1 20.8 43.2 1.6 -11.5366
461 1 19.2 44.8 0 -11.5969
432 2 24 43.2 1.6 -9.67235
463 1 22.4 44.8 0 -11.6281
465 1 25.6 44.8 0 -11.6962
434 2 27.2 43.2 1.6 -9.73905
467 2 28.8 44.8 0 -9.80839
436 1 30.4 43.2 1.6 -11.6956
469 3 32 44.8 0 -11.3122
438 1 33.6 43.2 1.6 -11.7032
471 2 35.2 44.8 0 -9.85982
440 1 36.8 43.2 1.6 -11.743
473 3 38.4 44.8 0 -11.3477
442 1 40 43.2 1.6 -11.7344
475 1 41.6 44.8 0 -11.8137
444 3 43.2 43.2 1.6 -11.1891
477 1 44.8 44.8 0 -11.8121
446 2 46.4 43.2 1.6 -9.73544
479 1 48 44.8 0 -11.8124
448 3 49.6 43.2 1.6 -11.2042
450 3 1.6 46.4 1.6 -11.2369
481 1 0 48 0 -11.7836
452 3 4.8 46.4 1.6 -11.2748
483 2 3.2 48 0 -9.78921
454 3 8 46.4 1.6 -11.3276
485 1 6.4 48 0 -11.8574
456 2 11.2 46.4 1.6 -9.90438
487 3 9.6 48 0 -11.3686
458 2 14.4 46.4 1.6 -9.84992
489 2 12.8 48 0 -9.87345
460 3 17.6 46.4 1.6 -11.2618
491 3 16 48 0 -11.2938
462 1 20.8 46.4 1.6 -11.5926
493 1 19.2 48 0 -11.6744
464 2 24 46.4 1.6 -9.75361
495 2 22.4 48 0 -9.7588
497 1 25.6 48 0 -11.7866
466 2 27.2 46.4 1.6 -9.76506
499 1 28.8 48 0 -11.814
468 3 30.4 46.4 1.6 -11.3235
501 1 32 48 0 -11.8778
470 3 33.6 46.4 1.6 -11.3593
503 1 35.2 48 0 -11.8673
472 3 36.8 46.4 1.6 -11.3597
505 1 38.4 48 0 -11.8776
474 3 40 46.4 1.6 -11.3609
507 1 41.6 48 0 -11.8115
476 3 43.2 46.4 1.6 -11.3078
509 1 44.8 48 0 -11.7806
478 3 46.4 46.4 1.6 -11.1645
511 1 48 48 0 -11.7811
480 3 49.6 46.4 1.6 -11.2429
482 3 1.6 49.6 1.6 -11.2372
484 3 4.8 49.6 1.6 -11.2369
486 3 8 49.6 1.6 -11.3818
488 1 11.2 49.6 1.6 -11.7765
490 1 14.4 49.6 1.6 -11.7758
492 1 17.6 49.6 1.6 -11.8027
494 1 20.8 49.6 1.6 -11.7526
496 2 24 49.6 1.6 -9.89165
498 3 27.2 49.6 1.6 -11.2664
500 3 30.4 49.6 1.6 -11.2743
502 3 33.6 49.6 1.6 -11.2743
504 3 36.8 49.6 1.6 -11.2736
506 3 40 49.6 1.6 -11.2999
508 3 43.2 49.6 1.6 -11.2647
510 3 46.4 49.6 1.6 -11.2374
512 3 49.6 49.6 1.6 -11.2048
513 1 0 0 3.2 -11.8183
514 2 1.6 1.6 4.8 -9.83818
515 1 3.2 0 3.2 -11.7888
516 2 4.8 1.6 4.8 -9.83671
517 1 6.4 0 3.2 -11.8042
518 3 8 1.6 4.8 -11.2311
519 2 9.6 0 3.2 -9.86951
520 1 11.2 1.6 4.8 -11.6964
521 2 12.8 0 3.2 -9.79541
522 1 14.4 1.6 4.8 -11.6841
523 2 16 0 3.2 -9.81322
524 3 17.6 1.6 4.8 -11.2391
525 3 19.2 0 3.2 -11.332
526 1 20.8 1.6 4.8 -11.8209
527 3 22.4 0 3.2 -11.2668
528 1 24 1.6 4.8 -11.6995
529 2 25.6 0 3.2 -9.81636
530 2 27.2 1.6 4.8 -9.73316
531 1 28.8 0 3.2 -11.7826
532 2 30.4 1.6 4.8 -9.78347
533 2 32 0 3.2 -9.78318
534 2 33.6 1.6 4.8 -9.82085
535 1 35.2 0 3.2 -11.7853
536 1 36.8 1.6 4.8 -11.7708
537 3 38.4 0 3.2 -11.2194
538 1 40 1.6 4.8 -11.7735
539 2 41.6 0 3.2 -9.8707
540 1 43.2 1.6 4.8 -11.7946
541 2 44.8 0 3.2 -9.84559
542 2 46.4 1.6 4.8 -9.87088
543 1 48 0 3.2 -11.8178
544 2 49.6 1.6 4.8 -9.88614
545 2 0 3.2 3.2 -9.77999
546 1 1.6 4.8 4.8 -11.6525
547 2 3.2 3.2 3.2 -9.82855
548 2 4.8 4.8 4.8 -9.72776
549 1 6.4 3.2 3.2 -11.7872
550 3 8 4.8 4.8 -11.2048
551 1 9.6 3.2 3.2 -11.7877
552 3 11.2 4.8 4.8 -11.2687
553 2 12.8 3.2 3.2 -9.78909
554 3 14.4 4.8 4.8 -11.232
555 1 16 3.2 3.2 -11.788
556 3 17.6 4.8 4.8 -11.2774
557 2 19.2 3.2 3.2 -9.84634
558 1 20.8 4.8 4.8 -11.7622
559 2 22.4 3.2 3.2 -9.70011
560 1 24 4.8 4.8 -11.6744
561 1 25.6 3.2 3.2 -11.6815
562 2 27.2 4.8 4.8 -9.78703
563 1 28.8 3.2 3.2 -11.7194
564 1 30.4 4.8 4.8 -11.6973
565 2 32 3.2 3.2 -9.87721
566 1 33.6 4.8 4.8 -11.7921
567 2 35.2 3.2 3.2 -9.85414
568 1 36.8 4.8 4.8 -11.6719
569 2 38.4 3.2 3.2 -9.79642
570 1 40 4.8 4.8 -11.6927
571 2 41.6 3.2 3.2 -9.82639
572 1 43.2 4.8 4.8 -11.7306
573 2 44.8 3.2 3.2 -9.80066
574 2 46.4 4.8 4.8 -9.86437
575 1 48 3.2 3.2 -11.7796
576 2 49.6 4.8 4.8 -9.8096
577 1 0 6.4 3.2 -11.7306
578 3 1.6 8 4.8 -11.2019
579 1 3.2 6.4 3.2 -11.6619
580 3 4.8 8 4.8 -11.1648
581 1 6.4 6.4 3.2 -11.7833
582 3 8 8 4.8 -11.2423
583 1 9.6 6.4 3.2 -11.8677
584 3 11.2 8 4.8 -11.2417
585 1 12.8 6.4 3.2 -11.8677
586 3 14.4 8 4.8 -11.2394
587 1 16 6.4 3.2 -11.7863
588 2 17.6 8 4.8 -9.83986
589 2 19.2 6.4 3.2 -9.80461
590 1 20.8 8 4.8 -11.7578
591 2 22.4 6.4 3.2 -9.66011
592 1 24 8 4.8 -11.6966
593 2 25.6 6.4 3.2 -9.78762
594 2 27.2 8 4.8 -9.8087
595 2 28.8 6.4 3.2 -9.81968
596 1 30.4 8 4.8 -11.6751
597 2 32 6.4 3.2 -9.83206
598 2 33.6 8 4.8 -9.82268
599 2 35.2 6.4 3.2 -9.77439
600 2 36.8 8 4.8 -9.81497
601 1 38.4 6.4 3.2 -11.7102
602 2 40 8 4.8 -9.78851
603 2 41.6 6.4 3.2 -9.7636
604 3 43.2 8 4.8 -11.1529
605 1 44.8 6.4 3.2 -11.7077
606 3 46.4 8 4.8 -11.2651
607 1 48 6.4 3.2 -11.7554
608 3 49.6 8 4.8 -11.3355
609 1 0 9.6 3.2 -11.8413
610 3 1.6 11.2 4.8 -11.2417
611 1 3.2 9.6 3.2 -11.8124
612 3 4.8 11.2 4.8 -11.242
613 1 6.4 9.6 3.2 -11.7844
614 3 8 11.2 4.8 -11.2033
615 1 9.6 9.6 3.2 -11.812
616 3 11.2 11.2 4.8 -11.242
617 1 12.8 9.6 3.2 -11.8415
618 3 14.4 11.2 4.8 -11.3021
619 1 16 9.6 3.2 -11.8189
620 2 17.6 11.2 4.8 -9.84683
621 2 19.2 9.6 3.2 -9.79488
622 2 20.8 11.2 4.8 -9.83357
623 2 22.4 9.6 3.2 -9.74861
624 2 24 11.2 4.8 -9.82479
625 1 25.6 9.6 3.2 -11.6641
626 2 27.2 11.2 4.8 -9.75587
627 1 28.8 9.6 3.2 -11.7015
628 2 30.4 11.2 4.8 -9.7394
629 1 32 9.6 3.2 -11.6806
630 2 33.6 11.2 4.8 -9.79568
631 1 35.2 9.6 3.2 -11.7897
632 3 36.8 11.2 4.8 -11.2024
633 1 38.4 9.6 3.2 -11.7797
634 3 40 11.2 4.8 -11.1645
635 1 41.6 9.6 3.2 -11.8178
636 3 43.2 11.2 4.8 -11.2435
637 1 44.8 9.6 3.2 -11.7501
638 3 46.4 11.2 4.8 -11.2042
639 1 48 9.6 3.2 -11.8142
640 3 49.6 11.2 4.8 -11.2036
641 1 0 12.8 3.2 -11.8786
642 3 1.6 14.4 4.8 -11.3384
643 1 3.2 12.8 3.2 -11.8414
644 3 4.8 14.4 4.8 -11.242
645 1 6.4 12.8 3.2 -11.8122
646 3 8 14.4 4.8 -11.2036
647 1 9.6 12.8 3.2 -11.8423
648 3 11.2 14.4 4.8 -11.2423
649 1 12.8 12.8 3.2 -11.8117
650 3 14.4 14.4 4.8 -11.2718
651 1 16 12.8 3.2 -11.8113
652 3 17.6 14.4 4.8 -11.2392
653 1 19.2 12.8 3.2 -11.8133
654 3 20.8 14.4 4.8 -11.3069
655 1 22.4 12.8 3.2 -11.7459
656 3 24 14.4 4.8 -11.235
657 1 25.6 12.8 3.2 -11.703
658 2 27.2 14.4 4.8 -9.7207
659 1 28.8 12.8 3.2 -11.6651
660 2 30.4 14.4 4.8 -9.72397
661 2 32 12.8 3.2 -9.73379
662 2 33.6 14.4 4.8 -9.72587
663 1 35.2 12.8 3.2 -11.7896
664 3 36.8 14.4 4.8 -11.2753
665 1 38.4 12.8 3.2 -11.8415
666 3 40 14.4 4.8 -11.2417
667 1 41.6 12.8 3.2 -11.8417
668 3 43.2 14.4 4.8 -11.2417
669 1 44.8 12.8 3.2 -11.8124
670 3 46.4 14.4 4.8 -11.2039
671 1 48 12.8 3.2 -11.8116
672 3 49.6 14.4 4.8 -11.3394
673 3 0 16 3.2 -11.2639
674 3 1.6 17.6 4.8 -11.388
675 1 3.2 16 3.2 -11.8532
676 3 4.8 17.6 4.8 -11.1982
677 1 6.4 16 3.2 -11.7844
678 2 8 17.6 4.8 -9.73544
679 1 9.6 16 3.2 -11.7838
680 3 11.2 17.6 4.8 -11.1657
681 1 12.8 16 3.2 -11.7196
682 3 14.4 17.6 4.8 -11.0804
683 1 16 16 3.2 -11.7494
684 3 17.6 17.6 4.8 -11.2048
685 1 19.2 16 3.2 -11.8415
686 2 20.8 17.6 4.8 -9.84224
687 2 22.4 16 3.2 -9.81346
688 1 24 17.6 4.8 -11.7411
689 2 25.6 16 3.2 -9.73959
690 1 27.2 17.6 4.8 -11.6802
691 1 28.8 16 3.2 -11.6455
692 2 30.4 17.6 4.8 -9.76095
693 2 32 16 3.2 -9.84853
694 1 33.6 17.6 4.8 -11.6111
695 2 35.2 16 3.2 -9.79945
696 3 36.8 17.6 4.8 -11.2345
697 1 38.4 16 3.2 -11.8421
698 3 40 17.6 4.8 -11.2039
699 1 41.6 16 3.2 -11.8414
700 3 43.2 17.6 4.8 -11.3068
701 1 44.8 16 3.2 -11.8281
702 2 46.4 17.6 4.8 -9.83439
703 1 48 16 3.2 -11.8089
704 3 49.6 17.6 4.8 -11.3274
705 2 0 19.2 3.2 -9.9098
706 2 1.6 20.8 4.8 -9.86406
707 2 3.2 19.2 3.2 -9.8334
708 2 4.8 20.8 4.8 -9.8467
709 1 6.4 19.2 3.2 -11.7652
710 3 8 20.8 4.8 -11.3364
711 1 9.6 19.2 3.2 -11.7435
712 3 11.2 20.8 4.8 -11.3403
713 1 12.8 19.2 3.2 -11.6472
714 2 14.4 20.8 4.8 -9.77621
715 1 16 19.2 3.2 -11.7212
716 3 17.6 20.8 4.8 -11.2045
717 1 19.2 19.2 3.2 -11.8164
718 3 20.8 20.8 4.8 -11.4229
719 2 22.4 19.2 3.2 -9.91637
720 3 24 20.8 4.8 -11.3121
721 2 25.6 19.2 3.2 -9.82538
722 1 27.2 20.8 4.8 -11.8208
723 2 28.8 19.2 3.2 -9.70114
724 1 30.4 20.8 4.8 -11.8142
725 2 32 19.2 3.2 -9.78405
726 1 33.6 20.8 4.8 -11.735
727 2 35.2 19.2 3.2 -9.78032
728 3 36.8 20.8 4.8 -11.3801
729 1 38.4 19.2 3.2 -11.8278
730 2 40 20.8 4.8 -9.92614
731 1 41.6 19.2 3.2 -11.8688
732 3 43.2 20.8 4.8 -11.3427
733 3 44.8 19.2 3.2 -11.1877
734 2 46.4 20.8 4.8 -9.82332
735 2 48 19.2 3.2 -9.77929
736 3 49.6 20.8 4.8 -11.2247
737 2 0 22.4 3.2 -9.84167
738 3 1.6 24 4.8 -11.3193
739 2 3.2 22.4 3.2 -9.8862
740 1 4.8 24 4.8 -11.7034
741 2 6.4 22.4 3.2 -9.81201
742 1 8 24 4.8 -11.7356
743 3 9.6 22.4 3.2 -11.3771
744 3 11.2 24 4.8 -11.4328
745 2 12.8 22.4 3.2 -9.86008
746 3 14.4 24 4.8 -11.3172
747 1 16 22.4 3.2 -11.8249
748 3 17.6 24 4.8 -11.2698
749 1 19.2 22.4 3.2 -11.7369
750 2 20.8 24 4.8 -9.79797
751 3 22.4 22.4 3.2 -11.3709
752 1 24 24 4.8 -11.8457
753 3 25.6 22.4 3.2 -11.3063
754 1 27.2 24 4.8 -11.8414
755 3 28.8 22.4 3.2 -11.2048
756 1 30.4 24 4.8 -11.8415
757 3 32 22.4 3.2 -11.2045
758 1 33.6 24 4.8 -11.8412
759 3 35.2 22.4 3.2 -11.3626
760 1 36.8 24 4.8 -11.8779
761 3 38.4 22.4 3.2 -11.4382
762 1 40 24 4.8 -11.8669
763 3 41.6 22.4 3.2 -11.3096
764 1 43.2 24 4.8 -11.8038
765 1 44.8 22.4 3.2 -11.6722
766 2 46.4 24 4.8 -9.7982
767 1 48 22.4 3.2 -11.6439
768 2 49.6 24 4.8 -9.86412
769 2 0 25.6 3.2 -9.92658
771 2 3.2 25.6 3.2 -9.87061
773 2 6.4 25.6 3.2 -9.72105
775 2 9.6 25.6 3.2 -9.79714
777 2 12.8 25.6 3.2 -9.89147
779 3 16 25.6 3.2 -11.2981
781 1 19.2 25.6 3.2 -11.7117
783 2 22.4 25.6 3.2 -9.79647
785 3 25.6 25.6 3.2 -11.2746
787 3 28.8 25.6 3.2 -11.2414
789 3 32 25.6 3.2 -11.2414
791 3 35.2 25.6 3.2 -11.2417
793 3 38.4 25.6 3.2 -11.2417
795 3 41.6 25.6 3.2 -11.2048
797 3 44.8 25.6 3.2 -11.2597
799 2 48 25.6 3.2 -9.83929
770 2 1.6 27.2 4.8 -9.81572
801 1 0 28.8 3.2 -11.679
772 1 4.8 27.2 4.8 -11.6817
803 1 3.2 28.8 3.2 -11.6762
774 1 8 27.2 4.8 -11.6974
805 3 6.4 28.8 3.2 -11.1874
776 2 11.2 27.2 4.8 -9.78794
807 2 9.6 28.8 3.2 -9.66274
778 2 14.4 27.2 4.8 -9.7972
809 1 12.8 28.8 3.2 -11.6008
780 2 17.6 27.2 4.8 -9.71616
811 2 16 28.8 3.2 -9.76159
782 2 20.8 27.2 4.8 -9.72999
813 1 19.2 28.8 3.2 -11.5995
784 1 24 27.2 4.8 -11.7953
815 1 22.4 28.8 3.2 -11.7187
817 3 25.6 28.8 3.2 -11.2645
786 1 27.2 27.2 4.8 -11.8413
819 3 28.8 28.8 3.2 -11.2426
788 1 30.4 27.2 4.8 -11.8417
821 3 32 28.8 3.2 -11.242
790 1 33.6 27.2 4.8 -11.8415
823 3 35.2 28.8 3.2 -11.2039
792 1 36.8 27.2 4.8 -11.8417
825 3 38.4 28.8 3.2 -11.2039
794 1 40 27.2 4.8 -11.8417
827 3 41.6 28.8 3.2 -11.2423
796 1 43.2 27.2 4.8 -11.8411
829 3 44.8 28.8 3.2 -11.3614
798 1 46.4 27.2 4.8 -11.8116
831 2 48 28.8 3.2 -9.78063
800 1 49.6 27.2 4.8 -11.6846
802 3 1.6 30.4 4.8 -11.1904
833 1 0 32 3.2 -11.7824
804 2 4.8 30.4 4.8 -9.73954
835 1 3.2 32 3.2 -11.7269
806 2 8 30.4 4.8 -9.80858
837 2 6.4 32 3.2 -9.76738
808 2 11.2 30.4 4.8 -9.74284
839 1 9.6 32 3.2 -11.7282
810 2 14.4 30.4 4.8 -9.72326
841 2 12.8 32 3.2 -9.79727
812 1 17.6 30.4 4.8 -11.5718
843 3 16 32 3.2 -11.2282
814 2 20.8 30.4 4.8 -9.76083
845 2 19.2 32 3.2 -9.72886
816 2 24 30.4 4.8 -9.86466
847 2 22.4 32 3.2 -9.87356
849 2 25.6 32 3.2 -9.91338
818 1 27.2 30.4 4.8 -11.8578
851 3 28.8 32 3.2 -11.2567
820 1 30.4 30.4 4.8 -11.8134
853 3 32 32 3.2 -11.3346
822 1 33.6 30.4 4.8 -11.8462
855 3 35.2 32 3.2 -11.3
824 1 36.8 30.4 4.8 -11.7872
857 2 38.4 32 3.2 -9.81715
826 1 40 30.4 4.8 -11.8134
859 3 41.6 32 3.2 -11.3222
828 1 43.2 30.4 4.8 -11.8455
861 2 44.8 32 3.2 -9.95124
830 2 46.4 30.4 4.8 -9.81625
863 1 48 32 3.2 -11.8289
832 2 49.6 30.4 4.8 -9.76237
834 3 1.6 33.6 4.8 -11.2057
865 1 0 35.2 3.2 -11.812
836 3 4.8 33.6 4.8 -11.2008
867 1 3.2 35.2 3.2 -11.8117
838 3 8 33.6 4.8 -11.2402
869 1 6.4 35.2 3.2 -11.8463
840 3 11.2 33.6 4.8 -11.2243
871 1 9.6 35.2 3.2 -11.8494
842 2 14.4 33.6 4.8 -9.86722
873 2 12.8 35.2 3.2 -9.85952
844 1 17.6 33.6 4.8 -11.7846
875 3 16 35.2 3.2 -11.3034
846 1 20.8 33.6 4.8 -11.8155
877 3 19.2 35.2 3.2 -11.126
848 2 24 33.6 4.8 -9.94773
879 3 22.4 35.2 3.2 -11.2768
881 1 25.6 35.2 3.2 -11.8276
850 3 27.2 33.6 4.8 -11.3101
883 1 28.8 35.2 3.2 -11.7363
852 2 30.4 33.6 4.8 -9.88528
885 3 32 35.2 3.2 -11.3977
854 2 33.6 33.6 4.8 -9.91887
887 3 35.2 35.2 3.2 -11.3083
856 2 36.8 33.6 4.8 -9.83012
889 1 38.4 35.2 3.2 -11.6606
858 2 40 33.6 4.8 -9.8516
891 1 41.6 35.2 3.2 -11.7266
860 2 43.2 33.6 4.8 -9.87654
893 2 44.8 35.2 3.2 -9.81741
862 3 46.4 33.6 4.8 -11.291
895 1 48 35.2 3.2 -11.8099
864 3 49.6 33.6 4.8 -11.1257
866 3 1.6 36.8 4.8 -11.2045
897 1 0 38.4 3.2 -11.7831
868 3 4.8 36.8 4.8 -11.242
899 1 3.2 38.4 3.2 -11.8124
870 3 8 36.8 4.8 -11.2042
901 1 6.4 38.4 3.2 -11.8413
872 2 11.2 36.8 4.8 -9.81453
903 1 9.6 38.4 3.2 -11.7491
874 2 14.4 36.8 4.8 -9.79613
905 1 12.8 38.4 3.2 -11.6728
876 1 17.6 36.8 4.8 -11.7849
907 3 16 38.4 3.2 -11.1928
878 1 20.8 36.8 4.8 -11.8111
909 2 19.2 38.4 3.2 -9.80897
880 2 24 36.8 4.8 -9.8181
911 3 22.4 38.4 3.2 -11.2486
913 1 25.6 38.4 3.2 -11.7848
882 3 27.2 36.8 4.8 -11.1632
915 1 28.8 38.4 3.2 -11.7279
884 2 30.4 36.8 4.8 -9.85315
917 2 32 38.4 3.2 -9.85792
886 3 33.6 36.8 4.8 -11.3912
919 2 35.2 38.4 3.2 -9.86714
888 3 36.8 36.8 4.8 -11.3302
921 2 38.4 38.4 3.2 -9.8171
890 3 40 36.8 4.8 -11.1537
923 2 41.6 38.4 3.2 -9.84223
892 2 43.2 36.8 4.8 -9.83483
925 2 44.8 38.4 3.2 -9.81687
894 2 46.4 36.8 4.8 -9.71986
927 1 48 38.4 3.2 -11.7579
896 2 49.6 36.8 4.8 -9.67724
898 3 1.6 40 4.8 -11.1248
929 1 0 41.6 3.2 -11.7841
900 3 4.8 40 4.8 -11.2745
931 1 3.2 41.6 3.2 -11.7525
902 3 8 40 4.8 -11.2353
933 1 6.4 41.6 3.2 -11.8423
904 2 11.2 40 4.8 -9.80574
935 1 9.6 41.6 3.2 -11.7869
906 1 14.4 40 4.8 -11.758
937 2 12.8 41.6 3.2 -9.80866
908 1 17.6 40 4.8 -11.7849
939 3 16 41.6 3.2 -11.2382
910 1 20.8 40 4.8 -11.7875
941 2 19.2 41.6 3.2 -9.75183
912 1 24 40 4.8 -11.7666
943 2 22.4 41.6 3.2 -9.75982
945 2 25.6 41.6 3.2 -9.75131
914 2 27.2 40 4.8 -9.7871
947 1 28.8 41.6 3.2 -11.6695
916 2 30.4 40 4.8 -9.7234
949 2 32 41.6 3.2 -9.78381
918 2 33.6 40 4.8 -9.86428
951 2 35.2 41.6 3.2 -9.80271
920 3 36.8 40 4.8 -11.3162
953 3 38.4 41.6 3.2 -11.2185
922 2 40 40 4.8 -9.83441
955 2 41.6 41.6 3.2 -9.80943
924 3 43.2 40 4.8 -11.2552
957 1 44.8 41.6 3.2 -11.7942
926 2 46.4 40 4.8 -9.81883
959 1 48 41.6 3.2 -11.8133
928 3 49.6 40 4.8 -11.1992
930 2 1.6 43.2 4.8 -9.78145
961 1 0 44.8 3.2 -11.8141
932 2 4.8 43.2 4.8 -9.81389
963 1 3.2 44.8 3.2 -11.7878
934 3 8 43.2 4.8 -11.2358
965 1 6.4 44.8 3.2 -11.7838
936 3 11.2 43.2 4.8 -11.315
967 1 9.6 44.8 3.2 -11.7907
938 1 14.4 43.2 4.8 -11.8
969 2 12.8 44.8 3.2 -9.86278
940 1 17.6 43.2 4.8 -11.7517
971 3 16 44.8 3.2 -11.2547
942 1 20.8 43.2 4.8 -11.7179
973 2 19.2 44.8 3.2 -9.69043
944 1 24 43.2 4.8 -11.6998
975 2 22.4 44.8 3.2 -9.63869
977 1 25.6 44.8 3.2 -11.6269
946 2 27.2 43.2 4.8 -9.7247
979 1 28.8 44.8 3.2 -11.6621
948 2 30.4 43.2 4.8 -9.72267
981 2 32 44.8 3.2 -9.81628
950 3 33.6 43.2 4.8 -11.227
983 1 35.2 44.8 3.2 -11.7607
952 2 36.8 43.2 4.8 -9.84764
985 2 38.4 44.8 3.2 -9.89277
954 1 40 43.2 4.8 -11.7312
987 3 41.6 44.8 3.2 -11.2754
956 2 43.2 43.2 4.8 -9.83926
989 1 44.8 44.8 3.2 -11.7685
958 3 46.4 43.2 4.8 -11.1541
991 1 48 44.8 3.2 -11.7838
960 3 49.6 43.2 4.8 -11.3074
962 2 1.6 46.4 4.8 -9.78975
993 1 0 48 3.2 -11.8136
964 3 4.8 46.4 4.8 -11.1193
995 1 3.2 48 3.2 -11.7736
966 2 8 46.4 4.8 -9.77597
997 1 6.4 48 3.2 -11.8127
968 2 11.2 46.4 4.8 -9.84136
999 2 9.6 48 3.2 -9.86827
970 1 14.4 46.4 4.8 -11.7627
1001 2 12.8 48 3.2 -9.84242
972 1 17.6 46.4 4.8 -11.8262
1003 3 16 48 3.2 -11.2824
974 1 20.8 46.4 4.8 -11.7801
1005 3 19.2 48 3.2 -11.2024
976 1 24 46.4 4.8 -11.7267
1007 3 22.4 48 3.2 -11.2677
1009 2 25.6 48 3.2 -9.82796
978 2 27.2 46.4 4.8 -9.80248
1011 1 28.8 48 3.2 -11.7907
980 3 30.4 46.4 4.8 -11.2298
1013 1 32 48 3.2 -11.8399
982 3 33.6 46.4 4.8 -11.2338
1015 1 35.2 48 3.2 -11.7793
984 3 36.8 46.4 4.8 -11.228
1017 1 38.4 48 3.2 -11.758
986 2 40 46.4 4.8 -9.7767
1019 1 41.6 48 3.2 -11.7709
988 2 43.2 46.4 4.8 -9.86675
1021 1 44.8 48 3.2 -11.7886
990 2 46.4 46.4 4.8 -9.78156
1023 1 48 48 3.2 -11.8136
992 3 49.6 46.4 4.8 -11.3271
994 2 1.6 49.6 4.8 -9.75913
996 2 4.8 49.6 4.8 -9.72159
998 3 8 49.6 4.8 -11.3219
1000 2 11.2 49.6 4.8 -9.82812
1002 1 14.4 49.6 4.8 -11.7168
1004 1 17.6 49.6 4.8 -11.8267
1006 1 20.8 49.6 4.8 -11.841
1008 1 24 49.6 4.8 -11.8181
1010 2 27.2 49.6 4.8 -9.80509
1012 2 30.4 49.6 4.8 -9.79353
1014 2 33.6 49.6 4.8 -9.76038
1016 2 36.8 49.6 4.8 -9.73633
1018 1 40 49.6 4.8 -11.6333
1020 2 43.2 49.6 4.8 -9.80322
1022 2 46.4 49.6 4.8 -9.86697
1024 3 49.6 49.6 4.8 -11.2873
1025 2 0 0 6.4 -9.80773
1026 1 1.6 1.6 8 -11.8295
1027 2 3.2 0 6.4 -9.803
1028 3 4.8 1.6 8 -11.3408
1029 1 6.4 0 6.4 -11.8122
1030 3 8 1.6 8 -11.2751
1031 2 9.6 0 6.4 -9.80822
1032 2 11.2 1.6 8 -9.79018
1033 2 12.8 0 6.4 -9.83379
1034 2 14.4 1.6 8 -9.69703
1035 2 16 0 6.4 -9.80047
1036 1 17.6 1.6 8 -11.6729
1037 3 19.2 0 6.4 -11.3739
1038 1 20.8 1.6 8 -11.841
1039 3 22.4 0 6.4 -11.2045
1040 1 24 1.6 8 -11.7878
1041 2 25.6 0 6.4 -9.76215
1042 2 27.2 1.6 8 -9.816
1043 1 28.8 0 6.4 -11.7049
1044 3 30.4 1.6 8 -11.3244
1045 1 32 0 6.4 -11.7593
1046 1 33.6 1.6 8 -11.756
1047 2 35.2 0 6.4 -9.73257
1048 2 36.8 1.6 8 -9.7955
1049 2 38.4 0 6.4 -9.78605
1050 1 40 1.6 8 -11.8137
1051 3 41.6 0 6.4 -11.1625
1052 1 43.2 1.6 8 -11.8117
1053 2 44.8 0 6.4 -9.83751
1054 1 46.4 1.6 8 -11.8373
1055 2 48 0 6.4 -9.83437
1056 1 49.6 1.6 8 -11.7863
1057 2 0 3.2 6.4 -9.87431
1058 2 1.6 4.8 8 -9.7989
1059 2 3.2 3.2 6.4 -9.8697
1060 3 4.8 4.8 8 -11.3281
1061 1 6.4 3.2 6.4 -11.8134
1062 3 8 4.8 8 -11.242
1063 1 9.6 3.2 6.4 -11.7884
1064 3 11.2 4.8 8 -11.2389
1065 2 12.8 3.2 6.4 -9.75989
1066 2 14.4 4.8 8 -9.73551
1067 1 16 3.2 6.4 -11.6189
1068 1 17.6 4.8 8 -11.6471
1069 3 19.2 3.2 6.4 -11.2971
1070 1 20.8 4.8 8 -11.8412
1071 3 22.4 3.2 6.4 -11.1657
1072 1 24 4.8 8 -11.7878
1073 2 25.6 3.2 6.4 -9.75338
1074 2 27.2 4.8 8 -9.84635
1075 1 28.8 3.2 6.4 -11.727
1076 2 30.4 4.8 8 -9.85112
1077 3 32 3.2 6.4 -11.2853
1078 1 33.6 4.8 8 -11.8043
1079 3 35.2 3.2 6.4 -11.2342
1080 1 36.8 4.8 8 -11.7564
1081 3 38.4 3.2 6.4 -11.198
1082 1 40 4.8 8 -11.7875
1083 3 41.6 3.2 6.4 -11.166
1084 1 43.2 4.8 8 -11.8089
1085 3 44.8 3.2 6.4 -11.3244
1086 2 46.4 4.8 8 -9.84976
1087 3 48 3.2 6.4 -11.3409
1088 1 49.6 4.8 8 -11.8655
1089 2 0 6.4 6.4 -9.81984
1090 3 1.6 8 8 -11.3011
1091 1 3.2 6.4 6.4 -11.757
1092 3 4.8 8 8 -11.2423
1093 1 6.4 6.4 6.4 -11.8122
1094 3 8 8 8 -11.2414
1095 1 9.6 6.4 6.4 -11.8415
1096 3 11.2 8 8 -11.2039
1097 1 12.8 6.4 6.4 -11.8094
1098 2 14.4 8 8 -9.79005
1099 1 16 6.4 6.4 -11.6953
1100 1 17.6 8 8 -11.6705
1101 3 19.2 6.4 6.4 -11.2294
1102 1 20.8 8 8 -11.7803
1103 3 22.4 6.4 6.4 -11.1657