ITEM: TIMESTEP
0
ITEM: NUMBER OF ATOMS
8192
ITEM: BOX BOUNDS pp pp pp
0.0000000000000000e+00 5.1200000000000003e+01
0.0000000000000000e+00 5.1200000000000003e+01
0.0000000000000000e+00 5.1200000000000003e+01
ITEM: ATOMS id type x y z c_eng
1 1 0 0 0 -11.7505
2 3 1.6 1.6 1.6 -11.2993
3 1 3.2 0 0 -11.7849
4 2 4.8 1.6 1.6 -9.80563
5 1 6.4 0 0 -11.7832
6 3 8 1.6 1.6 -11.2988
7 2 9.6 0 0 -9.84848
8 2 11.2 1.6 1.6 -9.86681
9 2 12.8 0 0 -9.8
10 2 14.4 1.6 1.6 -9.78433
11 2 16 0 0 -9.81411
12 2 17.6 1.6 1.6 -9.81413
13 2 19.2 0 0 -9.78044
14 2 20.8 1.6 1.6 -9.8771
15 2 22.4 0 0 -9.85959
16 2 24 1.6 1.6 -9.90862
17 1 25.6 0 0 -11.8184
18 3 27.2 1.6 1.6 -11.3032
19 1 28.8 0 0 -11.812
20 3 30.4 1.6 1.6 -11.2634
21 1 32 0 0 -11.8419
22 3 33.6 1.6 1.6 -11.4118
23 1 35.2 0 0 -11.841
24 2 36.8 1.6 1.6 -9.88244
25 1 38.4 0 0 -11.8535
26 3 40 1.6 1.6 -11.3148
27 1 41.6 0 0 -11.8701
28 2 43.2 1.6 1.6 -9.8672
29 2 44.8 0 0 -9.80514
30 3 46.4 1.6 1.6 -11.3
31 1 48 0 0 -11.8421
32 3 49.6 1.6 1.6 -11.2051
33 1 0 3.2 0 -11.7799
34 3 1.6 4.8 1.6 -11.3234
35 2 3.2 3.2 0 -9.799
36 2 4.8 4.8 1.6 -9.85836
37 1 6.4 3.2 0 -11.7849
38 3 8 4.8 1.6 -11.1645
39 1 9.6 3.2 0 -11.8163
40 3 11.2 4.8 1.6 -11.2746
41 2 12.8 3.2 0 -9.78911
42 3 14.4 4.8 1.6 -11.1961
43 1 16 3.2 0 -11.7247
44 2 17.6 4.8 1.6 -9.80869
45 1 19.2 3.2 0 -11.7404
46 2 20.8 4.8 1.6 -9.8771
47 2 22.4 3.2 0 -9.876
48 2 24 4.8 1.6 -9.88681
49 1 25.6 3.2 0 -11.8181
50 3 27.2 4.8 1.6 -11.2649
51 1 28.8 3.2 0 -11.812
52 2 30.4 4.8 1.6 -9.83257
53 1 32 3.2 0 -11.8414
54 3 33.6 4.8 1.6 -11.2864
55 1 35.2 3.2 0 -11.8114
56 2 36.8 4.8 1.6 -9.831
57 1 38.4 3.2 0 -11.7548
58 2 40 4.8 1.6 -9.78908
59 1 41.6 3.2 0 -11.7561
60 2 43.2 4.8 1.6 -9.65973
61 1 44.8 3.2 0 -11.7459
62 3 46.4 4.8 1.6 -11.1598
63 1 48 3.2 0 -11.8189
64 2 49.6 4.8 1.6 -9.74857
65 1 0 6.4 0 -11.8186
66 3 1.6 8 1.6 -11.3086
67 1 3.2 6.4 0 -11.8708
68 3 4.8 8 1.6 -11.2735
69 1 6.4 6.4 0 -11.7841
70 3 8 8 1.6 -11.242
71 1 9.6 6.4 0 -11.812
72 3 11.2 8 1.6 -11.2414
73 1 12.8 6.4 0 -11.8681
74 3 14.4 8 1.6 -11.2423
75 1 16 6.4 0 -11.8142
76 3 17.6 8 1.6 -11.2647
77 2 19.2 6.4 0 -9.78695
78 1 20.8 8 1.6 -11.7339
79 2 22.4 6.4 0 -9.8493
80 1 24 8 1.6 -11.6748
81 1 25.6 6.4 0 -11.7938
82 3 27.2 8 1.6 -11.2023
83 1 28.8 6.4 0 -11.8117
84 3 30.4 8 1.6 -11.1237
85 1 32 6.4 0 -11.8173
86 2 33.6 8 1.6 -9.80397
87 1 35.2 6.4 0 -11.8135
88 3 36.8 8 1.6 -11.2953
89 1 38.4 6.4 0 -11.796
90 3 40 8 1.6 -11.2696
91 1 41.6 6.4 0 -11.6911
92 2 43.2 8 1.6 -9.64793
93 1 44.8 6.4 0 -11.7265
94 3 46.4 8 1.6 -11.2363
95 2 48 6.4 0 -9.77934
96 3 49.6 8 1.6 -11.2386
97 1 0 9.6 0 -11.8136
98 3 1.6 11.2 1.6 -11.2417
99 1 3.2 9.6 0 -11.8413
100 3 4.8 11.2 1.6 -11.2414
101 1 6.4 9.6 0 -11.8415
102 3 8 11.2 1.6 -11.2414
103 1 9.6 9.6 0 -11.8681
104 3 11.2 11.2 1.6 -11.2414
105 1 12.8 9.6 0 -11.8415
106 3 14.4 11.2 1.6 -11.242
107 1 16 9.6 0 -11.8413
108 3 17.6 11.2 1.6 -11.2392
109 1 19.2 9.6 0 -11.767
110 2 20.8 11.2 1.6 -9.76189
111 2 22.4 9.6 0 -9.7557
112 2 24 11.2 1.6 -9.70026
113 2 25.6 9.6 0 -9.74493
114 2 27.2 11.2 1.6 -9.71615
115 1 28.8 9.6 0 -11.8423
116 3 30.4 11.2 1.6 -11.1673
117 1 32 9.6 0 -11.7808
118 2 33.6 11.2 1.6 -9.67676
119 1 35.2 9.6 0 -11.7806
120 3 36.8 11.2 1.6 -11.2042
121 1 38.4 9.6 0 -11.8412
122 3 40 11.2 1.6 -11.2039
123 1 41.6 9.6 0 -11.7505
124 2 43.2 11.2 1.6 -9.70671
125 1 44.8 9.6 0 -11.7198
126 3 46.4 11.2 1.6 -11.2045
127 1 48 9.6 0 -11.8188
128 3 49.6 11.2 1.6 -11.2039
129 1 0 12.8 0 -11.8137
130 3 1.6 14.4 1.6 -11.2045
131 1 3.2 12.8 0 -11.8413
132 3 4.8 14.4 1.6 -11.2039
133 1 6.4 12.8 0 -11.8417
134 3 8 14.4 1.6 -11.2417
135 1 9.6 12.8 0 -11.8415
136 3 11.2 14.4 1.6 -11.2417
137 1 12.8 12.8 0 -11.8124
138 3 14.4 14.4 1.6 -11.2036
139 1 16 12.8 0 -11.8124
140 3 17.6 14.4 1.6 -11.2426
141 1 19.2 12.8 0 -11.78
142 3 20.8 14.4 1.6 -11.2971
143 1 22.4 12.8 0 -11.7016
144 2 24 14.4 1.6 -9.77254
145 1 25.6 12.8 0 -11.6698
146 2 27.2 14.4 1.6 -9.72673
147 1 28.8 12.8 0 -11.7495
148 3 30.4 14.4 1.6 -11.326
149 1 32 12.8 0 -11.8377
150 3 33.6 14.4 1.6 -11.2974
151 1 35.2 12.8 0 -11.812
152 3 36.8 14.4 1.6 -11.2426
153 1 38.4 12.8 0 -11.8118
154 3 40 14.4 1.6 -11.2039
155 1 41.6 12.8 0 -11.8118
156 3 43.2 14.4 1.6 -11.2039
157 1 44.8 12.8 0 -11.7821
158 3 46.4 14.4 1.6 -11.2045
159 1 48 12.8 0 -11.8033
160 3 49.6 14.4 1.6 -11.1654
161 1 0 16 0 -11.7193
162 2 1.6 17.6 1.6 -9.83405
163 1 3.2 16 0 -11.789
164 2 4.8 17.6 1.6 -9.78148
165 1 6.4 16 0 -11.7806
166 3 8 17.6 1.6 -11.1648
167 1 9.6 16 0 -11.8417
168 3 11.2 17.6 1.6 -11.2042
169 1 12.8 16 0 -11.7808
170 3 14.4 17.6 1.6 -11.2392
171 1 16 16 0 -11.7839
172 3 17.6 17.6 1.6 -11.2392
173 1 19.2 16 0 -11.8372
174 3 20.8 17.6 1.6 -11.3473
175 2 22.4 16 0 -9.80827
176 2 24 17.6 1.6 -9.86505
177 2 25.6 16 0 -9.80687
178 2 27.2 17.6 1.6 -9.85368
179 1 28.8 16 0 -11.7955
180 2 30.4 17.6 1.6 -9.93044
181 2 32 16 0 -9.83413
182 2 33.6 17.6 1.6 -9.87666
183 1 35.2 16 0 -11.8136
184 3 36.8 17.6 1.6 -11.1994
185 1 38.4 16 0 -11.8033
186 3 40 17.6 1.6 -11.2048
187 1 41.6 16 0 -11.8134
188 3 43.2 17.6 1.6 -11.2429
189 1 44.8 16 0 -11.8136
190 3 46.4 17.6 1.6 -11.2666
191 1 48 16 0 -11.699
192 2 49.6 17.6 1.6 -9.80693
193 3 0 19.2 0 -11.2474
194 1 1.6 20.8 1.6 -11.7907
195 2 3.2 19.2 0 -9.87653
196 2 4.8 20.8 1.6 -9.8282
197 1 6.4 19.2 0 -11.7349
198 2 8 20.8 1.6 -9.7861
199 1 9.6 19.2 0 -11.7503
200 2 11.2 20.8 1.6 -9.75617
201 1 12.8 19.2 0 -11.7572
202 2 14.4 20.8 1.6 -9.73611
203 2 16 19.2 0 -9.71085
204 2 17.6 20.8 1.6 -9.703
205 1 19.2 19.2 0 -11.7326
206 1 20.8 20.8 1.6 -11.5807
207 2 22.4 19.2 0 -9.85938
208 1 24 20.8 1.6 -11.7297
209 2 25.6 19.2 0 -9.89533
210 1 27.2 20.8 1.6 -11.7888
211 2 28.8 19.2 0 -9.83803
212 1 30.4 20.8 1.6 -11.8183
213 2 32 19.2 0 -9.86051
214 1 33.6 20.8 1.6 -11.726
215 1 35.2 19.2 0 -11.654
216 2 36.8 20.8 1.6 -9.8339
217 1 38.4 19.2 0 -11.7613
218 3 40 20.8 1.6 -11.2878
219 1 41.6 19.2 0 -11.8176
220 3 43.2 20.8 1.6 -11.2251
221 1 44.8 19.2 0 -11.7667
222 2 46.4 20.8 1.6 -9.7964
223 2 48 19.2 0 -9.78641
224 1 49.6 20.8 1.6 -11.7342
225 2 0 22.4 0 -9.84246
226 1 1.6 24 1.6 -11.7834
227 2 3.2 22.4 0 -9.84051
228 1 4.8 24 1.6 -11.7359
229 2 6.4 22.4 0 -9.75512
230 1 8 24 1.6 -11.7026
231 1 9.6 22.4 0 -11.6912
232 1 11.2 24 1.6 -11.7318
233 1 12.8 22.4 0 -11.6988
234 2 14.4 24 1.6 -9.76173
235 1 16 22.4 0 -11.7304
236 2 17.6 24 1.6 -9.76239
237 2 19.2 22.4 0 -9.71582
238 1 20.8 24 1.6 -11.6412
239 2 22.4 22.4 0 -9.72103
240 1 24 24 1.6 -11.7172
241 3 25.6 22.4 0 -11.2662
242 1 27.2 24 1.6 -11.8413
243 3 28.8 22.4 0 -11.3346
244 1 30.4 24 1.6 -11.8415
245 3 32 22.4 0 -11.2361
246 1 33.6 24 1.6 -11.8122
247 2 35.2 22.4 0 -9.72835
248 1 36.8 24 1.6 -11.7873
249 2 38.4 22.4 0 -9.80754
250 1 40 24 1.6 -11.7763
251 2 41.6 22.4 0 -9.82615
252 1 43.2 24 1.6 -11.7259
253 2 44.8 22.4 0 -9.79399
254 2 46.4 24 1.6 -9.8444
255 2 48 22.4 0 -9.78666
256 2 49.6 24 1.6 -9.81366
257 2 0 25.6 0 -9.84042
259 2 3.2 25.6 0 -9.82843
261 2 6.4 25.6 0 -9.80088
263 3 9.6 25.6 0 -11.2736
265 2 12.8 25.6 0 -9.84415
267 1 16 25.6 0 -11.7889
269 2 19.2 25.6 0 -9.80173
271 2 22.4 25.6 0 -9.75688
273 3 25.6 25.6 0 -11.2666
275 3 28.8 25.6 0 -11.3083
277 3 32 25.6 0 -11.2417
279 3 35.2 25.6 0 -11.2042
281 3 38.4 25.6 0 -11.1648
283 3 41.6 25.6 0 -11.1654
285 2 44.8 25.6 0 -9.79011
287 1 48 25.6 0 -11.7089
258 2 1.6 27.2 1.6 -9.79029
289 1 0 28.8 0 -11.6601
260 2 4.8 27.2 1.6 -9.71505
291 2 3.2 28.8 0 -9.70461
262 1 8 27.2 1.6 -11.7898
293 2 6.4 28.8 0 -9.79557
264 1 11.2 27.2 1.6 -11.7387
295 3 9.6 28.8 0 -11.2178
266 2 14.4 27.2 1.6 -9.82766
297 2 12.8 28.8 0 -9.71756
268 2 17.6 27.2 1.6 -9.77347
299 2 16 28.8 0 -9.75079
270 2 20.8 27.2 1.6 -9.79095
301 1 19.2 28.8 0 -11.6049
272 1 24 27.2 1.6 -11.7566
303 1 22.4 28.8 0 -11.7347
305 2 25.6 28.8 0 -9.83491
274 1 27.2 27.2 1.6 -11.8415
307 3 28.8 28.8 0 -11.2662
276 1 30.4 27.2 1.6 -11.8415
309 3 32 28.8 0 -11.242
278 1 33.6 27.2 1.6 -11.8417
311 3 35.2 28.8 0 -11.2417
280 1 36.8 27.2 1.6 -11.8417
313 3 38.4 28.8 0 -11.2036
282 1 40 27.2 1.6 -11.8415
315 3 41.6 28.8 0 -11.2042
284 1 43.2 27.2 1.6 -11.8141
317 2 44.8 28.8 0 -9.78965
286 2 46.4 27.2 1.6 -9.78596
319 1 48 28.8 0 -11.6725
288 2 49.6 27.2 1.6 -9.79595
290 3 1.6 30.4 1.6 -11.1857
321 3 0 32 0 -11.32
292 1 4.8 30.4 1.6 -11.7068
323 2 3.2 32 0 -9.76446
294 1 8 30.4 1.6 -11.7272
325 3 6.4 32 0 -11.2204
296 1 11.2 30.4 1.6 -11.6078
327 2 9.6 32 0 -9.79478
298 1 14.4 30.4 1.6 -11.7013
329 2 12.8 32 0 -9.71627
300 1 17.6 30.4 1.6 -11.6362
331 3 16 32 0 -11.1262
302 2 20.8 30.4 1.6 -9.77284
333 2 19.2 32 0 -9.73462
304 3 24 30.4 1.6 -11.2111
335 1 22.4 32 0 -11.7446
337 1 25.6 32 0 -11.7871
306 1 27.2 30.4 1.6 -11.7172
339 2 28.8 32 0 -9.85248
308 1 30.4 30.4 1.6 -11.8134
341 3 32 32 0 -11.3023
310 1 33.6 30.4 1.6 -11.8413
343 3 35.2 32 0 -11.2036
312 1 36.8 30.4 1.6 -11.812
345 2 38.4 32 0 -9.73522
314 1 40 30.4 1.6 -11.8375
347 3 41.6 32 0 -11.2647
316 1 43.2 30.4 1.6 -11.8176
349 2 44.8 32 0 -9.84963
318 2 46.4 30.4 1.6 -9.90502
351 2 48 32 0 -9.86932
320 3 49.6 30.4 1.6 -11.2901
322 2 1.6 33.6 1.6 -9.83563
353 2 0 35.2 0 -9.80727
324 2 4.8 33.6 1.6 -9.75319
355 1 3.2 35.2 0 -11.6219
326 2 8 33.6 1.6 -9.80832
357 2 6.4 35.2 0 -9.76245
328 2 11.2 33.6 1.6 -9.84417
359 2 9.6 35.2 0 -9.78138
330 1 14.4 33.6 1.6 -11.8155
361 3 12.8 35.2 0 -11.2608
332 1 17.6 33.6 1.6 -11.7817
363 3 16 35.2 0 -11.2726
334 1 20.8 33.6 1.6 -11.7789
365 3 19.2 35.2 0 -11.2207
336 3 24 33.6 1.6 -11.2609
367 1 22.4 35.2 0 -11.7437
369 1 25.6 35.2 0 -11.8119
338 3 27.2 33.6 1.6 -11.2352
371 1 28.8 35.2 0 -11.8178
340 2 30.4 33.6 1.6 -9.89167
373 2 32 35.2 0 -9.83461
342 1 33.6 33.6 1.6 -11.8409
375 3 35.2 35.2 0 -11.2054
344 1 36.8 33.6 1.6 -11.8128
377 3 38.4 35.2 0 -11.1235
346 1 40 33.6 1.6 -11.7224
379 2 41.6 35.2 0 -9.8109
348 2 43.2 33.6 1.6 -9.79836
381 1 44.8 35.2 0 -11.6862
350 2 46.4 33.6 1.6 -9.79225
383 2 48 35.2 0 -9.81126
352 3 49.6 33.6 1.6 -11.3719
354 3 1.6 36.8 1.6 -11.0803
385 1 0 38.4 0 -11.7637
356 2 4.8 36.8 1.6 -9.72209
387 1 3.2 38.4 0 -11.7195
358 2 8 36.8 1.6 -9.72874
389 1 6.4 38.4 0 -11.6995
360 3 11.2 36.8 1.6 -11.2946
391 1 9.6 38.4 0 -11.6681
362 1 14.4 36.8 1.6 -11.8408
393 2 12.8 38.4 0 -9.84249
364 1 17.6 36.8 1.6 -11.8116
395 3 16 38.4 0 -11.2268
366 2 20.8 36.8 1.6 -9.81334
397 2 19.2 38.4 0 -9.87988
368 2 24 36.8 1.6 -9.80762
399 1 22.4 38.4 0 -11.7623
401 1 25.6 38.4 0 -11.7806
370 3 27.2 36.8 1.6 -11.2051
403 1 28.8 38.4 0 -11.7878
372 3 30.4 36.8 1.6 -11.2272
405 2 32 38.4 0 -9.69833
374 1 33.6 36.8 1.6 -11.7363
407 3 35.2 38.4 0 -11.1265
376 1 36.8 36.8 1.6 -11.7867
409 3 38.4 38.4 0 -11.2057
378 1 40 36.8 1.6 -11.7445
411 3 41.6 38.4 0 -11.2845
380 2 43.2 36.8 1.6 -9.78002
413 1 44.8 38.4 0 -11.7379
382 2 46.4 36.8 1.6 -9.65958
415 1 48 38.4 0 -11.7895
384 2 49.6 36.8 1.6 -9.80629
386 3 1.6 40 1.6 -11.2438
417 1 0 41.6 0 -11.8119
388 3 4.8 40 1.6 -11.1664
419 1 3.2 41.6 0 -11.7963
390 3 8 40 1.6 -11.1246
421 1 6.4 41.6 0 -11.7981
392 2 11.2 40 1.6 -9.83318
423 1 9.6 41.6 0 -11.7276
394 1 14.4 40 1.6 -11.722
425 2 12.8 41.6 0 -9.75982
396 1 17.6 40 1.6 -11.7301
427 2 16 41.6 0 -9.80826
398 2 20.8 40 1.6 -9.78447
429 2 19.2 41.6 0 -9.71408
400 2 24 40 1.6 -9.76204
431 1 22.4 41.6 0 -11.7003
433 1 25.6 41.6 0 -11.8141
402 3 27.2 40 1.6 -11.2008
435 1 28.8 41.6 0 -11.7306
404 2 30.4 40 1.6 -9.73372
437 2 32 41.6 0 -9.67346
406 1 33.6 40 1.6 -11.6927
439 3 35.2 41.6 0 -11.1252
408 1 36.8 40 1.6 -11.7761
441 3 38.4 41.6 0 -11.0824
410 1 40 40 1.6 -11.7203
443 1 41.6 41.6 0 -11.6211
412 2 43.2 40 1.6 -9.8376
445 1 44.8 41.6 0 -11.8116
414 3 46.4 40 1.6 -11.1238
447 1 48 41.6 0 -11.8415
416 3 49.6 40 1.6 -11.2042
418 3 1.6 43.2 1.6 -11.1248
449 1 0 44.8 0 -11.7808
420 2 4.8 43.2 1.6 -9.67934
451 1 3.2 44.8 0 -11.7289
422 3 8 43.2 1.6 -11.1673
453 1 6.4 44.8 0 -11.7957
424 2 11.2 43.2 1.6 -9.78125
455 1 9.6 44.8 0 -11.7556
426 1 14.4 43.2 1.6 -11.7892
457 2 12.8 44.8 0 -9.81503
428 1 17.6 43.2 1.6 -11.663
459 3 16 44.8 0 -11.2497
430 1 20.8 43.2 1.6 -11.5099
461 1 19.2 44.8 0 -11.5666
432 2 24 43.2 1.6 -9.70173
463 1 22.4 44.8 0 -11.5876
465 1 25.6 44.8 0 -11.8047
434 3 27.2 43.2 1.6 -11.2323
467 2 28.8 44.8 0 -9.78097
436 1 30.4 43.2 1.6 -11.5972
469 2 32 44.8 0 -9.76048
438 1 33.6 43.2 1.6 -11.6607
471 2 35.2 44.8 0 -9.87761
440 1 36.8 43.2 1.6 -11.792
473 3 38.4 44.8 0 -11.2687
442 1 40 43.2 1.6 -11.6366
475 1 41.6 44.8 0 -11.73
444 3 43.2 43.2 1.6 -11.1963
477 1 44.8 44.8 0 -11.8415
446 3 46.4 43.2 1.6 -11.2426
479 1 48 44.8 0 -11.8417
448 3 49.6 43.2 1.6 -11.242
450 3 1.6 46.4 1.6 -11.1667
481 1 0 48 0 -11.7508
452 3 4.8 46.4 1.6 -11.1648
483 1 3.2 48 0 -11.7878
454 3 8 46.4 1.6 -11.2702
485 1 6.4 48 0 -11.7921
456 1 11.2 46.4 1.6 -11.639
487 2 9.6 48 0 -9.80974
458 1 14.4 46.4 1.6 -11.7478
489 2 12.8 48 0 -9.65649
460 2 17.6 46.4 1.6 -9.71425
491 2 16 48 0 -9.76024
462 1 20.8 46.4 1.6 -11.5344
493 1 19.2 48 0 -11.6031
464 2 24 46.4 1.6 -9.72949
495 1 22.4 48 0 -11.6795
497 1 25.6 48 0 -11.8134
466 3 27.2 46.4 1.6 -11.3028
499 1 28.8 48 0 -11.8375
468 3 30.4 46.4 1.6 -11.1923
501 1 32 48 0 -11.8125
470 2 33.6 46.4 1.6 -9.8947
503 1 35.2 48 0 -11.8442
472 3 36.8 46.4 1.6 -11.3681
505 1 38.4 48 0 -11.8532
474 3 40 46.4 1.6 -11.3305
507 1 41.6 48 0 -11.8407
476 3 43.2 46.4 1.6 -11.2756
509 1 44.8 48 0 -11.8421
478 3 46.4 46.4 1.6 -11.2042
511 1 48 48 0 -11.7806
480 3 49.6 46.4 1.6 -11.2429
482 3 1.6 49.6 1.6 -11.1667
484 3 4.8 49.6 1.6 -11.2054
486 3 8 49.6 1.6 -11.2874
488 1 11.2 49.6 1.6 -11.6823
490 1 14.4 49.6 1.6 -11.6651
492 1 17.6 49.6 1.6 -11.7055
494 1 20.8 49.6 1.6 -11.6767
496 2 24 49.6 1.6 -9.85228
498 3 27.2 49.6 1.6 -11.2645
500 2 30.4 49.6 1.6 -9.77578
502 3 33.6 49.6 1.6 -11.3225
504 3 36.8 49.6 1.6 -11.3891
506 3 40 49.6 1.6 -11.3626
508 3 43.2 49.6 1.6 -11.2942
510 3 46.4 49.6 1.6 -11.2979
512 3 49.6 49.6 1.6 -11.1661
513 1 0 0 3.2 -11.7795
514 3 1.6 1.6 4.8 -11.3811
515 1 3.2 0 3.2 -11.8164
516 2 4.8 1.6 4.8 -9.85595
517 1 6.4 0 3.2 -11.8042
518 3 8 1.6 4.8 -11.2977
519 2 9.6 0 3.2 -9.86891
520 2 11.2 1.6 4.8 -9.83958
521 2 12.8 0 3.2 -9.7003
522 1 14.4 1.6 4.8 -11.5999
523 2 16 0 3.2 -9.73178
524 2 17.6 1.6 4.8 -9.79022
525 2 19.2 0 3.2 -9.83764
526 1 20.8 1.6 4.8 -11.8456
527 3 22.4 0 3.2 -11.3273
528 1 24 1.6 4.8 -11.7879
529 2 25.6 0 3.2 -9.86712
530 2 27.2 1.6 4.8 -9.84159
531 1 28.8 0 3.2 -11.7938
532 2 30.4 1.6 4.8 -9.87304
533 2 32 0 3.2 -9.81859
534 2 33.6 1.6 4.8 -9.8817
535 2 35.2 0 3.2 -9.90929
536 1 36.8 1.6 4.8 -11.8065
537 3 38.4 0 3.2 -11.3701
538 1 40 1.6 4.8 -11.7969
539 2 41.6 0 3.2 -9.86497
540 1 43.2 1.6 4.8 -11.712
541 2 44.8 0 3.2 -9.83314
542 2 46.4 1.6 4.8 -9.85355
543 1 48 0 3.2 -11.8183
544 3 49.6 1.6 4.8 -11.2869
545 1 0 3.2 3.2 -11.8221
546 2 1.6 4.8 4.8 -9.95762
547 2 3.2 3.2 3.2 -9.87172
548 2 4.8 4.8 4.8 -9.83667
549 1 6.4 3.2 3.2 -11.7587
550 3 8 4.8 4.8 -11.2042
551 1 9.6 3.2 3.2 -11.8133
552 3 11.2 4.8 4.8 -11.2389
553 1 12.8 3.2 3.2 -11.7298
554 2 14.4 4.8 4.8 -9.65865
555 1 16 3.2 3.2 -11.6305
556 2 17.6 4.8 4.8 -9.82134
557 2 19.2 3.2 3.2 -9.86329
558 1 20.8 4.8 4.8 -11.8452
559 3 22.4 3.2 3.2 -11.3806
560 1 24 4.8 4.8 -11.7883
561 2 25.6 3.2 3.2 -9.8672
562 2 27.2 4.8 4.8 -9.84185
563 1 28.8 3.2 3.2 -11.7548
564 2 30.4 4.8 4.8 -9.75927
565 2 32 3.2 3.2 -9.89003
566 1 33.6 4.8 4.8 -11.7837
567 2 35.2 3.2 3.2 -9.87167
568 1 36.8 4.8 4.8 -11.7575
569 2 38.4 3.2 3.2 -9.86055
570 1 40 4.8 4.8 -11.7339
571 2 41.6 3.2 3.2 -9.72438
572 2 43.2 4.8 4.8 -9.75215
573 1 44.8 3.2 3.2 -11.7126
574 2 46.4 4.8 4.8 -9.85358
575 1 48 3.2 3.2 -11.7706
576 2 49.6 4.8 4.8 -9.84941
577 1 0 6.4 3.2 -11.8095
578 3 1.6 8 4.8 -11.3415
579 2 3.2 6.4 3.2 -9.79842
580 3 4.8 8 4.8 -11.2738
581 1 6.4 6.4 3.2 -11.8144
582 3 8 8 4.8 -11.2417
583 1 9.6 6.4 3.2 -11.8417
584 3 11.2 8 4.8 -11.242
585 1 12.8 6.4 3.2 -11.812
586 3 14.4 8 4.8 -11.1989
587 1 16 6.4 3.2 -11.757
588 2 17.6 8 4.8 -9.8523
589 2 19.2 6.4 3.2 -9.88619
590 1 20.8 8 4.8 -11.8133
591 3 22.4 6.4 3.2 -11.2245
592 1 24 8 4.8 -11.7268
593 2 25.6 6.4 3.2 -9.76958
594 2 27.2 8 4.8 -9.75851
595 1 28.8 6.4 3.2 -11.736
596 1 30.4 8 4.8 -11.645
597 2 32 6.4 3.2 -9.79689
598 2 33.6 8 4.8 -9.8062
599 2 35.2 6.4 3.2 -9.87257
600 2 36.8 8 4.8 -9.91064
601 3 38.4 6.4 3.2 -11.2737
602 3 40 8 4.8 -11.2969
603 1 41.6 6.4 3.2 -11.7491
604 3 43.2 8 4.8 -11.2946
605 1 44.8 6.4 3.2 -11.7641
606 3 46.4 8 4.8 -11.3314
607 1 48 6.4 3.2 -11.812
608 3 49.6 8 4.8 -11.3025
609 1 0 9.6 3.2 -11.8413
610 3 1.6 11.2 4.8 -11.2417
611 1 3.2 9.6 3.2 -11.8681
612 3 4.8 11.2 4.8 -11.2414
613 1 6.4 9.6 3.2 -11.8415
614 3 8 11.2 4.8 -11.2414
615 1 9.6 9.6 3.2 -11.8417
616 3 11.2 11.2 4.8 -11.2414
617 1 12.8 9.6 3.2 -11.8415
618 3 14.4 11.2 4.8 -11.2746
619 1 16 9.6 3.2 -11.8463
620 2 17.6 11.2 4.8 -9.80908
621 2 19.2 9.6 3.2 -9.82048
622 2 20.8 11.2 4.8 -9.77531
623 2 22.4 9.6 3.2 -9.75823
624 2 24 11.2 4.8 -9.75636
625 1 25.6 9.6 3.2 -11.6742
626 2 27.2 11.2 4.8 -9.74268
627 1 28.8 9.6 3.2 -11.6925
628 3 30.4 11.2 4.8 -11.1152
629 1 32 9.6 3.2 -11.706
630 2 33.6 11.2 4.8 -9.78111
631 1 35.2 9.6 3.2 -11.7584
632 3 36.8 11.2 4.8 -11.2016
633 1 38.4 9.6 3.2 -11.8538
634 3 40 11.2 4.8 -11.2429
635 1 41.6 9.6 3.2 -11.7804
636 3 43.2 11.2 4.8 -11.2039
637 1 44.8 9.6 3.2 -11.7807
638 3 46.4 11.2 4.8 -11.2423
639 1 48 9.6 3.2 -11.8413
640 3 49.6 11.2 4.8 -11.2036
641 1 0 12.8 3.2 -11.8417
642 3 1.6 14.4 4.8 -11.2417
643 1 3.2 12.8 3.2 -11.8417
644 3 4.8 14.4 4.8 -11.2417
645 1 6.4 12.8 3.2 -11.8417
646 3 8 14.4 4.8 -11.2414
647 1 9.6 12.8 3.2 -11.8417
648 3 11.2 14.4 4.8 -11.2414
649 1 12.8 12.8 3.2 -11.8417
650 3 14.4 14.4 4.8 -11.2417
651 1 16 12.8 3.2 -11.812
652 3 17.6 14.4 4.8 -11.2045
653 1 19.2 12.8 3.2 -11.7873
654 3 20.8 14.4 4.8 -11.2373
655 1 22.4 12.8 3.2 -11.727
656 2 24 14.4 4.8 -9.73917
657 1 25.6 12.8 3.2 -11.6088
658 1 27.2 14.4 4.8 -11.5297
659 1 28.8 12.8 3.2 -11.6539
660 2 30.4 14.4 4.8 -9.71703
661 1 32 12.8 3.2 -11.7803
662 3 33.6 14.4 4.8 -11.1998
663 1 35.2 12.8 3.2 -11.7806
664 3 36.8 14.4 4.8 -11.2426
665 1 38.4 12.8 3.2 -11.8417
666 3 40 14.4 4.8 -11.2033
667 1 41.6 12.8 3.2 -11.8124
668 3 43.2 14.4 4.8 -11.242
669 1 44.8 12.8 3.2 -11.8124
670 3 46.4 14.4 4.8 -11.2414
671 1 48 12.8 3.2 -11.8417
672 3 49.6 14.4 4.8 -11.242
673 1 0 16 3.2 -11.8137
674 3 1.6 17.6 4.8 -11.3021
675 1 3.2 16 3.2 -11.8141
676 3 4.8 17.6 4.8 -11.2384
677 1 6.4 16 3.2 -11.8122
678 3 8 17.6 4.8 -11.2426
679 1 9.6 16 3.2 -11.8417
680 3 11.2 17.6 4.8 -11.242
681 1 12.8 16 3.2 -11.8417
682 3 14.4 17.6 4.8 -11.2036
683 1 16 16 3.2 -11.8415
684 3 17.6 17.6 4.8 -11.2423
685 1 19.2 16 3.2 -11.8677
686 3 20.8 17.6 4.8 -11.2998
687 2 22.4 16 3.2 -9.84991
688 1 24 17.6 4.8 -11.703
689 2 25.6 16 3.2 -9.80874
690 1 27.2 17.6 4.8 -11.6451
691 2 28.8 16 3.2 -9.76707
692 2 30.4 17.6 4.8 -9.81962
693 2 32 16 3.2 -9.89082
694 2 33.6 17.6 4.8 -9.85988
695 1 35.2 16 3.2 -11.8463
696 3 36.8 17.6 4.8 -11.2394
697 1 38.4 16 3.2 -11.8415
698 3 40 17.6 4.8 -11.2045
699 1 41.6 16 3.2 -11.8417
700 3 43.2 17.6 4.8 -11.2039
701 1 44.8 16 3.2 -11.8415
702 3 46.4 17.6 4.8 -11.3083
703 1 48 16 3.2 -11.8419
704 3 49.6 17.6 4.8 -11.3342
705 2 0 19.2 3.2 -9.88253
706 2 1.6 20.8 4.8 -9.88403
707 2 3.2 19.2 3.2 -9.85857
708 2 4.8 20.8 4.8 -9.86788
709 1 6.4 19.2 3.2 -11.7919
710 3 8 20.8 4.8 -11.2595
711 1 9.6 19.2 3.2 -11.8281
712 3 11.2 20.8 4.8 -11.3276
713 1 12.8 19.2 3.2 -11.7877
714 2 14.4 20.8 4.8 -9.77567
715 1 16 19.2 3.2 -11.7836
716 3 17.6 20.8 4.8 -11.1254
717 1 19.2 19.2 3.2 -11.7131
718 2 20.8 20.8 4.8 -9.78264
719 2 22.4 19.2 3.2 -9.8043
720 1 24 20.8 4.8 -11.6957
721 2 25.6 19.2 3.2 -9.72336
722 1 27.2 20.8 4.8 -11.7172
723 2 28.8 19.2 3.2 -9.8086
724 1 30.4 20.8 4.8 -11.8186
725 3 32 19.2 3.2 -11.3136
726 1 33.6 20.8 4.8 -11.7923
727 2 35.2 19.2 3.2 -9.79707
728 2 36.8 20.8 4.8 -9.84528
729 1 38.4 19.2 3.2 -11.8183
730 2 40 20.8 4.8 -9.85274
731 1 41.6 19.2 3.2 -11.8137
732 2 43.2 20.8 4.8 -9.81458
733 1 44.8 19.2 3.2 -11.8125
734 3 46.4 20.8 4.8 -11.2665
735 2 48 19.2 3.2 -9.81979
736 3 49.6 20.8 4.8 -11.2618
737 2 0 22.4 3.2 -9.8266
738 3 1.6 24 4.8 -11.3458
739 3 3.2 22.4 3.2 -11.2432
740 1 4.8 24 4.8 -11.7254
741 2 6.4 22.4 3.2 -9.83371
742 1 8 24 4.8 -11.694
743 3 9.6 22.4 3.2 -11.2571
744 3 11.2 24 4.8 -11.3657
745 2 12.8 22.4 3.2 -9.81761
746 3 14.4 24 4.8 -11.2998
747 1 16 22.4 3.2 -11.7241
748 3 17.6 24 4.8 -11.2031
749 1 19.2 22.4 3.2 -11.6451
750 2 20.8 24 4.8 -9.79011
751 2 22.4 22.4 3.2 -9.66462
752 1 24 24 4.8 -11.759
753 3 25.6 22.4 3.2 -11.1657
754 1 27.2 24 4.8 -11.8417
755 3 28.8 22.4 3.2 -11.2042
756 1 30.4 24 4.8 -11.8415
757 3 32 22.4 3.2 -11.2429
758 1 33.6 24 4.8 -11.8413
759 3 35.2 22.4 3.2 -11.2666
760 1 36.8 24 4.8 -11.8416
761 2 38.4 22.4 3.2 -9.85969
762 1 40 24 4.8 -11.8134
763 2 41.6 22.4 3.2 -9.80153
764 1 43.2 24 4.8 -11.7557
765 1 44.8 22.4 3.2 -11.7058
766 2 46.4 24 4.8 -9.85157
767 1 48 22.4 3.2 -11.7422
768 2 49.6 24 4.8 -9.88909
769 2 0 25.6 3.2 -9.88334
771 2 3.2 25.6 3.2 -9.84118
773 2 6.4 25.6 3.2 -9.68853
775 3 9.6 25.6 3.2 -11.2584
777 2 12.8 25.6 3.2 -9.83041
779 1 16 25.6 3.2 -11.7897
781 2 19.2 25.6 3.2 -9.76923
783 2 22.4 25.6 3.2 -9.78399
785 3 25.6 25.6 3.2 -11.2048
787 3 28.8 25.6 3.2 -11.2414
789 3 32 25.6 3.2 -11.2414
791 3 35.2 25.6 3.2 -11.242
793 3 38.4 25.6 3.2 -11.2039
795 3 41.6 25.6 3.2 -11.2051
797 3 44.8 25.6 3.2 -11.2599
799 2 48 25.6 3.2 -9.83937
770 2 1.6 27.2 4.8 -9.82985
801 1 0 28.8 3.2 -11.7645
772 1 4.8 27.2 4.8 -11.7355
803 1 3.2 28.8 3.2 -11.7091
774 1 8 27.2 4.8 -11.7549
805 3 6.4 28.8 3.2 -11.1839
776 2 11.2 27.2 4.8 -9.85666
807 2 9.6 28.8 3.2 -9.72818
778 3 14.4 27.2 4.8 -11.2359
809 1 12.8 28.8 3.2 -11.6457
780 2 17.6 27.2 4.8 -9.79902
811 2 16 28.8 3.2 -9.69607
782 2 20.8 27.2 4.8 -9.89042
813 1 19.2 28.8 3.2 -11.6709
784 1 24 27.2 4.8 -11.7579
815 2 22.4 28.8 3.2 -9.83929
817 3 25.6 28.8 3.2 -11.1655
786 1 27.2 27.2 4.8 -11.8417
819 3 28.8 28.8 3.2 -11.2051
788 1 30.4 27.2 4.8 -11.8417
821 3 32 28.8 3.2 -11.242
790 1 33.6 27.2 4.8 -11.8415
823 3 35.2 28.8 3.2 -11.2417
792 1 36.8 27.2 4.8 -11.8415
825 3 38.4 28.8 3.2 -11.3081
794 1 40 27.2 4.8 -11.8681
827 3 41.6 28.8 3.2 -11.3083
796 1 43.2 27.2 4.8 -11.8408
829 3 44.8 28.8 3.2 -11.3286
798 1 46.4 27.2 4.8 -11.8112
831 2 48 28.8 3.2 -9.8202
800 1 49.6 27.2 4.8 -11.703
802 3 1.6 30.4 4.8 -11.2679
833 1 0 32 3.2 -11.8533
804 2 4.8 30.4 4.8 -9.80969
835 1 3.2 32 3.2 -11.7316
806 2 8 30.4 4.8 -9.82438
837 2 6.4 32 3.2 -9.79724
808 2 11.2 30.4 4.8 -9.80384
839 1 9.6 32 3.2 -11.6981
810 2 14.4 30.4 4.8 -9.78033
841 3 12.8 32 3.2 -11.1926
812 1 17.6 30.4 4.8 -11.6717
843 3 16 32 3.2 -11.2662
814 2 20.8 30.4 4.8 -9.80803
845 3 19.2 32 3.2 -11.2325
816 1 24 30.4 4.8 -11.7703
847 3 22.4 32 3.2 -11.3642
849 1 25.6 32 3.2 -11.7103
818 1 27.2 30.4 4.8 -11.7137
851 2 28.8 32 3.2 -9.80084
820 1 30.4 30.4 4.8 -11.7867
853 3 32 32 3.2 -11.3284
822 1 33.6 30.4 4.8 -11.846
855 3 35.2 32 3.2 -11.3349
824 1 36.8 30.4 4.8 -11.8415
857 3 38.4 32 3.2 -11.324
826 2 40 30.4 4.8 -9.80466
859 3 41.6 32 3.2 -11.3207
828 1 43.2 30.4 4.8 -11.8466
861 2 44.8 32 3.2 -9.86367
830 2 46.4 30.4 4.8 -9.81626
863 1 48 32 3.2 -11.8175
832 3 49.6 30.4 4.8 -11.2658
834 3 1.6 33.6 4.8 -11.2048
865 1 0 35.2 3.2 -11.8174
836 3 4.8 33.6 4.8 -11.2006
867 1 3.2 35.2 3.2 -11.7498
838 3 8 33.6 4.8 -11.2404
869 1 6.4 35.2 3.2 -11.7897
840 3 11.2 33.6 4.8 -11.2584
871 1 9.6 35.2 3.2 -11.8129
842 2 14.4 33.6 4.8 -9.89472
873 2 12.8 35.2 3.2 -9.93947
844 1 17.6 33.6 4.8 -11.7574
875 2 16 35.2 3.2 -9.83436
846 1 20.8 33.6 4.8 -11.8326
877 3 19.2 35.2 3.2 -11.1961
848 2 24 33.6 4.8 -9.81815
879 3 22.4 35.2 3.2 -11.3089
881 1 25.6 35.2 3.2 -11.8022
850 3 27.2 33.6 4.8 -11.2283
883 1 28.8 35.2 3.2 -11.8458
852 2 30.4 33.6 4.8 -9.88191
885 2 32 35.2 3.2 -9.86413
854 2 33.6 33.6 4.8 -9.90537
887 3 35.2 35.2 3.2 -11.3162
856 2 36.8 33.6 4.8 -9.85669
889 2 38.4 35.2 3.2 -9.80725
858 2 40 33.6 4.8 -9.87004
891 1 41.6 35.2 3.2 -11.7136
860 2 43.2 33.6 4.8 -9.80768
893 1 44.8 35.2 3.2 -11.6641
862 2 46.4 33.6 4.8 -9.72379
895 1 48 35.2 3.2 -11.7245
864 3 49.6 33.6 4.8 -11.1657
866 3 1.6 36.8 4.8 -11.2423
897 1 0 38.4 3.2 -11.8122
868 3 4.8 36.8 4.8 -11.2042
899 1 3.2 38.4 3.2 -11.8124
870 3 8 36.8 4.8 -11.2042
901 1 6.4 38.4 3.2 -11.7808
872 3 11.2 36.8 4.8 -11.4142
903 1 9.6 38.4 3.2 -11.7978
874 3 14.4 36.8 4.8 -11.3514
905 3 12.8 38.4 3.2 -11.3834
876 1 17.6 36.8 4.8 -11.7685
907 3 16 38.4 3.2 -11.2304
878 1 20.8 36.8 4.8 -11.7846
909 2 19.2 38.4 3.2 -9.78155
880 2 24 36.8 4.8 -9.77796
911 2 22.4 38.4 3.2 -9.81613
913 1 25.6 38.4 3.2 -11.7399
882 3 27.2 36.8 4.8 -11.2034
915 1 28.8 38.4 3.2 -11.7833
884 3 30.4 36.8 4.8 -11.2756
917 1 32 38.4 3.2 -11.7618
886 3 33.6 36.8 4.8 -11.2938
919 2 35.2 38.4 3.2 -9.8206
888 2 36.8 36.8 4.8 -9.88429
921 2 38.4 38.4 3.2 -9.85379
890 3 40 36.8 4.8 -11.26
923 3 41.6 38.4 3.2 -11.2848
892 3 43.2 36.8 4.8 -11.1948
925 1 44.8 38.4 3.2 -11.7094
894 2 46.4 36.8 4.8 -9.61749
927 1 48 38.4 3.2 -11.7201
896 3 49.6 36.8 4.8 -11.1654
898 3 1.6 40 4.8 -11.2042
929 1 0 41.6 3.2 -11.812
900 3 4.8 40 4.8 -11.2045
931 1 3.2 41.6 3.2 -11.7508
902 3 8 40 4.8 -11.2045
933 1 6.4 41.6 3.2 -11.7811
904 2 11.2 40 4.8 -9.88359
935 1 9.6 41.6 3.2 -11.7868
906 1 14.4 40 4.8 -11.8564
937 2 12.8 41.6 3.2 -9.88032
908 1 17.6 40 4.8 -11.7497
939 2 16 41.6 3.2 -9.71778
910 1 20.8 40 4.8 -11.759
941 2 19.2 41.6 3.2 -9.65986
912 1 24 40 4.8 -11.7385
943 2 22.4 41.6 3.2 -9.73211
945 2 25.6 41.6 3.2 -9.78488
914 2 27.2 40 4.8 -9.83942
947 1 28.8 41.6 3.2 -11.7469
916 3 30.4 40 4.8 -11.2363
949 2 32 41.6 3.2 -9.72235
918 3 33.6 40 4.8 -11.334
951 2 35.2 41.6 3.2 -9.85788
920 3 36.8 40 4.8 -11.3223
953 2 38.4 41.6 3.2 -9.78073
922 2 40 40 4.8 -9.80266
955 2 41.6 41.6 3.2 -9.76049
924 2 43.2 40 4.8 -9.7777
957 1 44.8 41.6 3.2 -11.7578
926 2 46.4 40 4.8 -9.71542
959 1 48 41.6 3.2 -11.8423
928 3 49.6 40 4.8 -11.2386
930 2 1.6 43.2 4.8 -9.78123
961 1 0 44.8 3.2 -11.8141
932 2 4.8 43.2 4.8 -9.72054
963 1 3.2 44.8 3.2 -11.7568
934 3 8 43.2 4.8 -11.1657
965 1 6.4 44.8 3.2 -11.7806
936 3 11.2 43.2 4.8 -11.3086
967 1 9.6 44.8 3.2 -11.7179
938 2 14.4 43.2 4.8 -9.85064
969 3 12.8 44.8 3.2 -11.2097
940 1 17.6 43.2 4.8 -11.7223
971 3 16 44.8 3.2 -11.2672
942 1 20.8 43.2 4.8 -11.6889
973 2 19.2 44.8 3.2 -9.62674
944 1 24 43.2 4.8 -11.7451
975 2 22.4 44.8 3.2 -9.63899
977 1 25.6 44.8 3.2 -11.7288
946 3 27.2 43.2 4.8 -11.288
979 1 28.8 44.8 3.2 -11.7484
948 3 30.4 43.2 4.8 -11.2024
981 1 32 44.8 3.2 -11.7306
950 3 33.6 43.2 4.8 -11.3342
983 2 35.2 44.8 3.2 -9.87267
952 3 36.8 43.2 4.8 -11.2764
985 2 38.4 44.8 3.2 -9.89871
954 1 40 43.2 4.8 -11.6396
987 2 41.6 44.8 3.2 -9.75968
956 2 43.2 43.2 4.8 -9.72758
989 1 44.8 44.8 3.2 -11.7831
958 3 46.4 43.2 4.8 -11.1963
991 1 48 44.8 3.2 -11.8117
960 3 49.6 43.2 4.8 -11.3397
962 2 1.6 46.4 4.8 -9.83985
993 1 0 48 3.2 -11.7875
964 3 4.8 46.4 4.8 -11.2662
995 1 3.2 48 3.2 -11.8139
966 3 8 46.4 4.8 -11.2031
997 1 6.4 48 3.2 -11.8675
968 1 11.2 46.4 4.8 -11.5976
999 2 9.6 48 3.2 -9.71612
970 1 14.4 46.4 4.8 -11.758
1001 2 12.8 48 3.2 -9.61598
972 1 17.6 46.4 4.8 -11.7473
1003 3 16 48 3.2 -11.1558
974 1 20.8 46.4 4.8 -11.7505
1005 3 19.2 48 3.2 -11.1233
976 1 24 46.4 4.8 -11.7314
1007 3 22.4 48 3.2 -11.1975
1009 2 25.6 48 3.2 -9.81636
978 2 27.2 46.4 4.8 -9.86726
1011 1 28.8 48 3.2 -11.7864
980 3 30.4 46.4 4.8 -11.2396
1013 1 32 48 3.2 -11.79
982 3 33.6 46.4 4.8 -11.2659
1015 2 35.2 48 3.2 -9.83969
984 2 36.8 46.4 4.8 -9.88223
1017 1 38.4 48 3.2 -11.8236
986 2 40 46.4 4.8 -9.73878
1019 1 41.6 48 3.2 -11.7592
988 2 43.2 46.4 4.8 -9.77393
1021 1 44.8 48 3.2 -11.75
990 2 46.4 46.4 4.8 -9.80919
1023 1 48 48 3.2 -11.787
992 3 49.6 46.4 4.8 -11.2268
994 2 1.6 49.6 4.8 -9.78783
996 3 4.8 49.6 4.8 -11.2657
998 3 8 49.6 4.8 -11.3338
1000 1 11.2 49.6 4.8 -11.6591
1002 1 14.4 49.6 4.8 -11.6646
1004 1 17.6 49.6 4.8 -11.7561
1006 1 20.8 49.6 4.8 -11.8117
1008 1 24 49.6 4.8 -11.7886
1010 2 27.2 49.6 4.8 -9.83845
1012 2 30.4 49.6 4.8 -9.82006
1014 2 33.6 49.6 4.8 -9.8025
1016 2 36.8 49.6 4.8 -9.83473
1018 2 40 49.6 4.8 -9.78901
1020 1 43.2 49.6 4.8 -11.73
1022 2 46.4 49.6 4.8 -9.82708
1024 2 49.6 49.6 4.8 -9.7906
1025 1 0 0 6.4 -11.6864
1026 2 1.6 1.6 8 -9.88677
1027 2 3.2 0 6.4 -9.8475
1028 3 4.8 1.6 8 -11.3465
1029 1 6.4 0 6.4 -11.8428
1030 3 8 1.6 8 -11.3089
1031 2 9.6 0 6.4 -9.81976
1032 3 11.2 1.6 8 -11.328
1033 2 12.8 0 6.4 -9.82959
1034 2 14.4 1.6 8 -9.75894
1035 2 16 0 6.4 -9.74035
1036 2 17.6 1.6 8 -9.77523
1037 3 19.2 0 6.4 -11.2652
1038 1 20.8 1.6 8 -11.7491
1039 3 22.4 0 6.4 -11.2051
1040 1 24 1.6 8 -11.8141
1041 2 25.6 0 6.4 -9.81129
1042 2 27.2 1.6 8 -9.85851
1043 2 28.8 0 6.4 -9.83389
1044 3 30.4 1.6 8 -11.3668
1045 1 32 0 6.4 -11.7862
1046 3 33.6 1.6 8 -11.3001
1047 1 35.2 0 6.4 -11.7357
1048 3 36.8 1.6 8 -11.3553
1049 3 38.4 0 6.4 -11.2861
1050 1 40 1.6 8 -11.8227
1051 3 41.6 0 6.4 -11.2011
1052 1 43.2 1.6 8 -11.7806
1053 3 44.8 0 6.4 -11.2673
1054 1 46.4 1.6 8 -11.8171
1055 2 48 0 6.4 -9.80562
1056 1 49.6 1.6 8 -11.7995
1057 3 0 3.2 6.4 -11.3777
1058 2 1.6 4.8 8 -9.93081
1059 2 3.2 3.2 6.4 -9.9315
1060 3 4.8 4.8 8 -11.2991
1061 1 6.4 3.2 6.4 -11.8136
1062 3 8 4.8 8 -11.2417
1063 1 9.6 3.2 6.4 -11.8708
1064 3 11.2 4.8 8 -11.2743
1065 2 12.8 3.2 6.4 -9.73797
1066 2 14.4 4.8 8 -9.79364
1067 1 16 3.2 6.4 -11.6898
1068 3 17.6 4.8 8 -11.2419
1069 3 19.2 3.2 6.4 -11.284
1070 1 20.8 4.8 8 -11.7666
1071 3 22.4 3.2 6.4 -11.2054
1072 1 24 4.8 8 -11.7878
1073 2 25.6 3.2 6.4 -9.81216
1074 2 27.2 4.8 8 -9.83578
1075 1 28.8 3.2 6.4 -11.7967
1076 2 30.4 4.8 8 -9.86901
1077 2 32 3.2 6.4 -9.89151
1078 1 33.6 4.8 8 -11.824
1079 3 35.2 3.2 6.4 -11.2808
1080 1 36.8 4.8 8 -11.791
1081 3 38.4 3.2 6.4 -11.2246
1082 1 40 4.8 8 -11.7281
1083 2 41.6 3.2 6.4 -9.72197
1084 1 43.2 4.8 8 -11.7865
1085 2 44.8 3.2 6.4 -9.81489
1086 1 46.4 4.8 8 -11.8152
1087 3 48 3.2 6.4 -11.3154
1088 1 49.6 4.8 8 -11.8166
1089 2 0 6.4 6.4 -9.87051
1090 3 1.6 8 8 -11.3028
1091 1 3.2 6.4 6.4 -11.8487
1092 3 4.8 8 8 -11.242
1093 1 6.4 6.4 6.4 -11.812
1094 3 8 8 8 -11.2414
1095 1 9.6 6.4 6.4 -11.8415
1096 3 11.2 8 8 -11.2039
1097 1 12.8 6.4 6.4 -11.7833
1098 2 14.4 8 8 -9.78746
1099 1 16 6.4 6.4 -11.7257
1100 1 17.6 8 8 -11.757
1101 3 19.2 6.4 6.4 -11.2959
1102 1 20.8 8 8 -11.7795
1103 3 22.4 6.4 6.4 -11.2051