ITEM: TIMESTEP
0
ITEM: NUMBER OF ATOMS
8192
ITEM: BOX BOUNDS pp pp pp
0.0000000000000000e+00 5.1200000000000003e+01
0.0000000000000000e+00 5.1200000000000003e+01
0.0000000000000000e+00 5.1200000000000003e+01
ITEM: ATOMS id type x y z c_eng
1 1 0 0 0 -11.7809
2 3 1.6 1.6 1.6 -11.3341
3 1 3.2 0 0 -11.8048
4 3 4.8 1.6 1.6 -11.3312
5 1 6.4 0 0 -11.7519
6 3 8 1.6 1.6 -11.3027
7 2 9.6 0 0 -9.79815
8 2 11.2 1.6 1.6 -9.86689
9 2 12.8 0 0 -9.85613
10 2 14.4 1.6 1.6 -9.80397
11 3 16 0 0 -11.365
12 2 17.6 1.6 1.6 -9.82922
13 3 19.2 0 0 -11.2528
14 1 20.8 1.6 1.6 -11.7243
15 2 22.4 0 0 -9.80291
16 1 24 1.6 1.6 -11.7246
17 1 25.6 0 0 -11.7774
18 3 27.2 1.6 1.6 -11.2139
19 1 28.8 0 0 -11.752
20 2 30.4 1.6 1.6 -9.81081
21 1 32 0 0 -11.7594
22 2 33.6 1.6 1.6 -9.8789
23 1 35.2 0 0 -11.7559
24 3 36.8 1.6 1.6 -11.3148
25 1 38.4 0 0 -11.7965
26 3 40 1.6 1.6 -11.315
27 1 41.6 0 0 -11.7844
28 2 43.2 1.6 1.6 -9.818
29 1 44.8 0 0 -11.8099
30 3 46.4 1.6 1.6 -11.2394
31 1 48 0 0 -11.812
32 3 49.6 1.6 1.6 -11.2051
33 1 0 3.2 0 -11.7779
34 2 1.6 4.8 1.6 -9.80029
35 2 3.2 3.2 0 -9.80995
36 3 4.8 4.8 1.6 -11.2984
37 1 6.4 3.2 0 -11.8675
38 3 8 4.8 1.6 -11.242
39 1 9.6 3.2 0 -11.8462
40 3 11.2 4.8 1.6 -11.2746
41 2 12.8 3.2 0 -9.78908
42 3 14.4 4.8 1.6 -11.1959
43 1 16 3.2 0 -11.8009
44 2 17.6 4.8 1.6 -9.78202
45 1 19.2 3.2 0 -11.7555
46 2 20.8 4.8 1.6 -9.83265
47 2 22.4 3.2 0 -9.82826
48 2 24 4.8 1.6 -9.78497
49 1 25.6 3.2 0 -11.7153
50 2 27.2 4.8 1.6 -9.83719
51 1 28.8 3.2 0 -11.7603
52 2 30.4 4.8 1.6 -9.78156
53 1 32 3.2 0 -11.7872
54 3 33.6 4.8 1.6 -11.1867
55 1 35.2 3.2 0 -11.8137
56 2 36.8 4.8 1.6 -9.83849
57 1 38.4 3.2 0 -11.748
58 2 40 4.8 1.6 -9.85678
59 1 41.6 3.2 0 -11.7584
60 3 43.2 4.8 1.6 -11.2204
61 1 44.8 3.2 0 -11.7186
62 3 46.4 4.8 1.6 -11.2396
63 1 48 3.2 0 -11.8196
64 2 49.6 4.8 1.6 -9.71742
65 1 0 6.4 0 -11.7871
66 3 1.6 8 1.6 -11.2042
67 1 3.2 6.4 0 -11.8419
68 3 4.8 8 1.6 -11.242
69 1 6.4 6.4 0 -11.8415
70 3 8 8 1.6 -11.2417
71 1 9.6 6.4 0 -11.8122
72 3 11.2 8 1.6 -11.2033
73 1 12.8 6.4 0 -11.8379
74 3 14.4 8 1.6 -11.2426
75 1 16 6.4 0 -11.812
76 3 17.6 8 1.6 -11.2662
77 1 19.2 6.4 0 -11.7625
78 2 20.8 8 1.6 -9.85422
79 2 22.4 6.4 0 -9.82987
80 1 24 8 1.6 -11.7617
81 1 25.6 6.4 0 -11.7418
82 3 27.2 8 1.6 -11.2268
83 1 28.8 6.4 0 -11.7803
84 3 30.4 8 1.6 -11.1243
85 1 32 6.4 0 -11.7838
86 2 33.6 8 1.6 -9.74677
87 1 35.2 6.4 0 -11.814
88 3 36.8 8 1.6 -11.266
89 1 38.4 6.4 0 -11.782
90 3 40 8 1.6 -11.3286
91 1 41.6 6.4 0 -11.7715
92 2 43.2 8 1.6 -9.8021
93 1 44.8 6.4 0 -11.7588
94 3 46.4 8 1.6 -11.2355
95 2 48 6.4 0 -9.77929
96 3 49.6 8 1.6 -11.2389
97 1 0 9.6 0 -11.8134
98 3 1.6 11.2 1.6 -11.2417
99 1 3.2 9.6 0 -11.8415
100 3 4.8 11.2 1.6 -11.2414
101 1 6.4 9.6 0 -11.8417
102 3 8 11.2 1.6 -11.2414
103 1 9.6 9.6 0 -11.8124
104 3 11.2 11.2 1.6 -11.2417
105 1 12.8 9.6 0 -11.8124
106 3 14.4 11.2 1.6 -11.2417
107 1 16 9.6 0 -11.8415
108 3 17.6 11.2 1.6 -11.2384
109 1 19.2 9.6 0 -11.8189
110 2 20.8 11.2 1.6 -9.83758
111 2 22.4 9.6 0 -9.82044
112 2 24 11.2 1.6 -9.75437
113 2 25.6 9.6 0 -9.79936
114 2 27.2 11.2 1.6 -9.77619
115 1 28.8 9.6 0 -11.8421
116 3 30.4 11.2 1.6 -11.1248
117 1 32 9.6 0 -11.7811
118 2 33.6 11.2 1.6 -9.70694
119 1 35.2 9.6 0 -11.7806
120 3 36.8 11.2 1.6 -11.2039
121 1 38.4 9.6 0 -11.8413
122 3 40 11.2 1.6 -11.2423
123 1 41.6 9.6 0 -11.7801
124 3 43.2 11.2 1.6 -11.2036
125 1 44.8 9.6 0 -11.75
126 3 46.4 11.2 1.6 -11.2426
127 1 48 9.6 0 -11.834
128 3 49.6 11.2 1.6 -11.2039
129 1 0 12.8 0 -11.8137
130 3 1.6 14.4 1.6 -11.2042
131 1 3.2 12.8 0 -11.8413
132 3 4.8 14.4 1.6 -11.242
133 1 6.4 12.8 0 -11.8417
134 3 8 14.4 1.6 -11.2414
135 1 9.6 12.8 0 -11.8417
136 3 11.2 14.4 1.6 -11.2414
137 1 12.8 12.8 0 -11.8417
138 3 14.4 14.4 1.6 -11.2417
139 1 16 12.8 0 -11.8417
140 3 17.6 14.4 1.6 -11.2042
141 1 19.2 12.8 0 -11.8117
142 3 20.8 14.4 1.6 -11.2969
143 1 22.4 12.8 0 -11.756
144 2 24 14.4 1.6 -9.82571
145 1 25.6 12.8 0 -11.7324
146 2 27.2 14.4 1.6 -9.78047
147 1 28.8 12.8 0 -11.7495
148 3 30.4 14.4 1.6 -11.3081
149 1 32 12.8 0 -11.8136
150 3 33.6 14.4 1.6 -11.1993
151 1 35.2 12.8 0 -11.7841
152 3 36.8 14.4 1.6 -11.2432
153 1 38.4 12.8 0 -11.8118
154 3 40 14.4 1.6 -11.1652
155 1 41.6 12.8 0 -11.8421
156 3 43.2 14.4 1.6 -11.2426
157 1 44.8 12.8 0 -11.8117
158 3 46.4 14.4 1.6 -11.2042
159 1 48 12.8 0 -11.7873
160 3 49.6 14.4 1.6 -11.1648
161 1 0 16 0 -11.7759
162 2 1.6 17.6 1.6 -9.83793
163 1 3.2 16 0 -11.8184
164 3 4.8 17.6 1.6 -11.266
165 1 6.4 16 0 -11.812
166 3 8 17.6 1.6 -11.2042
167 1 9.6 16 0 -11.8417
168 3 11.2 17.6 1.6 -11.242
169 1 12.8 16 0 -11.8415
170 3 14.4 17.6 1.6 -11.2384
171 1 16 16 0 -11.8147
172 2 17.6 17.6 1.6 -9.74946
173 1 19.2 16 0 -11.7783
174 3 20.8 17.6 1.6 -11.2725
175 2 22.4 16 0 -9.83726
176 2 24 17.6 1.6 -9.86508
177 2 25.6 16 0 -9.85359
178 2 27.2 17.6 1.6 -9.85358
179 1 28.8 16 0 -11.7959
180 2 30.4 17.6 1.6 -9.88948
181 2 32 16 0 -9.77913
182 2 33.6 17.6 1.6 -9.8668
183 1 35.2 16 0 -11.8262
184 3 36.8 17.6 1.6 -11.3
185 1 38.4 16 0 -11.803
186 3 40 17.6 1.6 -11.1657
187 1 41.6 16 0 -11.8134
188 3 43.2 17.6 1.6 -11.1654
189 1 44.8 16 0 -11.8136
190 3 46.4 17.6 1.6 -11.2034
191 1 48 16 0 -11.7623
192 2 49.6 17.6 1.6 -9.79078
193 2 0 19.2 0 -9.78391
194 1 1.6 20.8 1.6 -11.7549
195 2 3.2 19.2 0 -9.82869
196 2 4.8 20.8 1.6 -9.85461
197 1 6.4 19.2 0 -11.7912
198 2 8 20.8 1.6 -9.79103
199 1 9.6 19.2 0 -11.812
200 3 11.2 20.8 1.6 -11.1935
201 1 12.8 19.2 0 -11.8144
202 2 14.4 20.8 1.6 -9.79113
203 2 16 19.2 0 -9.71085
204 2 17.6 20.8 1.6 -9.70303
205 1 19.2 19.2 0 -11.6815
206 1 20.8 20.8 1.6 -11.5811
207 2 22.4 19.2 0 -9.78603
208 1 24 20.8 1.6 -11.7005
209 2 25.6 19.2 0 -9.84259
210 1 27.2 20.8 1.6 -11.7582
211 2 28.8 19.2 0 -9.83819
212 1 30.4 20.8 1.6 -11.7582
213 2 32 19.2 0 -9.88532
214 1 33.6 20.8 1.6 -11.7691
215 2 35.2 19.2 0 -9.86934
216 3 36.8 20.8 1.6 -11.3466
217 1 38.4 19.2 0 -11.7894
218 2 40 20.8 1.6 -9.83469
219 1 41.6 19.2 0 -11.7783
220 2 43.2 20.8 1.6 -9.80782
221 1 44.8 19.2 0 -11.7387
222 2 46.4 20.8 1.6 -9.73779
223 2 48 19.2 0 -9.7529
224 1 49.6 20.8 1.6 -11.6354
225 2 0 22.4 0 -9.75157
226 1 1.6 24 1.6 -11.7993
227 2 3.2 22.4 0 -9.73816
228 1 4.8 24 1.6 -11.7262
229 2 6.4 22.4 0 -9.72351
230 1 8 24 1.6 -11.6708
231 1 9.6 22.4 0 -11.6986
232 1 11.2 24 1.6 -11.707
233 1 12.8 22.4 0 -11.7014
234 2 14.4 24 1.6 -9.78972
235 1 16 22.4 0 -11.7587
236 3 17.6 24 1.6 -11.2246
237 2 19.2 22.4 0 -9.73897
238 1 20.8 24 1.6 -11.6961
239 2 22.4 22.4 0 -9.73724
240 2 24 24 1.6 -9.72406
241 3 25.6 22.4 0 -11.2299
242 1 27.2 24 1.6 -11.8419
243 3 28.8 22.4 0 -11.3032
244 1 30.4 24 1.6 -11.8122
245 3 32 22.4 0 -11.2001
246 1 33.6 24 1.6 -11.8121
247 3 35.2 22.4 0 -11.2959
248 1 36.8 24 1.6 -11.8278
249 2 38.4 22.4 0 -9.85986
250 1 40 24 1.6 -11.787
251 3 41.6 22.4 0 -11.2875
252 1 43.2 24 1.6 -11.7901
253 2 44.8 22.4 0 -9.84979
254 2 46.4 24 1.6 -9.83157
255 2 48 22.4 0 -9.73044
256 1 49.6 24 1.6 -11.6651
257 2 0 25.6 0 -9.80076
259 2 3.2 25.6 0 -9.84724
261 2 6.4 25.6 0 -9.81708
263 3 9.6 25.6 0 -11.1774
265 2 12.8 25.6 0 -9.80395
267 1 16 25.6 0 -11.7934
269 2 19.2 25.6 0 -9.79596
271 2 22.4 25.6 0 -9.80057
273 3 25.6 25.6 0 -11.331
275 3 28.8 25.6 0 -11.2384
277 3 32 25.6 0 -11.2426
279 3 35.2 25.6 0 -11.242
281 3 38.4 25.6 0 -11.2039
283 3 41.6 25.6 0 -11.2045
285 2 44.8 25.6 0 -9.78963
287 1 48 25.6 0 -11.6326
258 2 1.6 27.2 1.6 -9.80931
289 2 0 28.8 0 -9.84961
260 2 4.8 27.2 1.6 -9.78243
291 2 3.2 28.8 0 -9.82146
262 1 8 27.2 1.6 -11.7547
293 3 6.4 28.8 0 -11.25
264 1 11.2 27.2 1.6 -11.7437
295 2 9.6 28.8 0 -9.85485
266 2 14.4 27.2 1.6 -9.79934
297 2 12.8 28.8 0 -9.7476
268 2 17.6 27.2 1.6 -9.84634
299 2 16 28.8 0 -9.72812
270 2 20.8 27.2 1.6 -9.75005
301 1 19.2 28.8 0 -11.5508
272 1 24 27.2 1.6 -11.7858
303 1 22.4 28.8 0 -11.6764
305 2 25.6 28.8 0 -9.85815
274 1 27.2 27.2 1.6 -11.8134
307 2 28.8 28.8 0 -9.8062
276 1 30.4 27.2 1.6 -11.8122
309 3 32 28.8 0 -11.2039
278 1 33.6 27.2 1.6 -11.8417
311 3 35.2 28.8 0 -11.242
280 1 36.8 27.2 1.6 -11.8417
313 3 38.4 28.8 0 -11.2033
282 1 40 27.2 1.6 -11.8417
315 3 41.6 28.8 0 -11.2045
284 1 43.2 27.2 1.6 -11.8141
317 2 44.8 28.8 0 -9.74869
286 2 46.4 27.2 1.6 -9.83141
319 2 48 28.8 0 -9.79696
288 2 49.6 27.2 1.6 -9.79053
290 3 1.6 30.4 1.6 -11.279
321 3 0 32 0 -11.3588
292 1 4.8 30.4 1.6 -11.7031
323 2 3.2 32 0 -9.78564
294 1 8 30.4 1.6 -11.816
325 3 6.4 32 0 -11.2933
296 2 11.2 30.4 1.6 -9.78398
327 3 9.6 32 0 -11.3875
298 1 14.4 30.4 1.6 -11.7645
329 3 12.8 32 0 -11.2984
300 1 17.6 30.4 1.6 -11.6926
331 3 16 32 0 -11.2693
302 1 20.8 30.4 1.6 -11.6827
333 2 19.2 32 0 -9.81781
304 3 24 30.4 1.6 -11.2482
335 2 22.4 32 0 -9.83858
337 2 25.6 32 0 -9.86145
306 1 27.2 30.4 1.6 -11.7233
339 2 28.8 32 0 -9.85669
308 1 30.4 30.4 1.6 -11.7826
341 3 32 32 0 -11.2664
310 1 33.6 30.4 1.6 -11.812
343 3 35.2 32 0 -11.1645
312 1 36.8 30.4 1.6 -11.7844
345 2 38.4 32 0 -9.73533
314 1 40 30.4 1.6 -11.812
347 3 41.6 32 0 -11.2008
316 1 43.2 30.4 1.6 -11.8184
349 2 44.8 32 0 -9.72648
318 2 46.4 30.4 1.6 -9.89002
351 2 48 32 0 -9.84965
320 3 49.6 30.4 1.6 -11.401
322 3 1.6 33.6 1.6 -11.3249
353 2 0 35.2 0 -9.78661
324 2 4.8 33.6 1.6 -9.78593
355 1 3.2 35.2 0 -11.6447
326 2 8 33.6 1.6 -9.86697
357 2 6.4 35.2 0 -9.76224
328 2 11.2 33.6 1.6 -9.91956
359 2 9.6 35.2 0 -9.75338
330 1 14.4 33.6 1.6 -11.911
361 2 12.8 35.2 0 -9.8062
332 3 17.6 33.6 1.6 -11.2625
363 3 16 35.2 0 -11.3964
334 1 20.8 33.6 1.6 -11.818
365 3 19.2 35.2 0 -11.3622
336 3 24 33.6 1.6 -11.3085
367 1 22.4 35.2 0 -11.7845
369 1 25.6 35.2 0 -11.8128
338 2 27.2 33.6 1.6 -9.78803
371 1 28.8 35.2 0 -11.7899
340 2 30.4 33.6 1.6 -9.86717
373 2 32 35.2 0 -9.83475
342 1 33.6 33.6 1.6 -11.7859
375 3 35.2 35.2 0 -11.166
344 1 36.8 33.6 1.6 -11.76
377 3 38.4 35.2 0 -11.1241
346 1 40 33.6 1.6 -11.7229
379 2 41.6 35.2 0 -9.76069
348 2 43.2 33.6 1.6 -9.80185
381 1 44.8 35.2 0 -11.6558
350 2 46.4 33.6 1.6 -9.79276
383 2 48 35.2 0 -9.77591
352 3 49.6 33.6 1.6 -11.348
354 3 1.6 36.8 1.6 -11.1223
385 1 0 38.4 0 -11.7325
356 2 4.8 36.8 1.6 -9.72197
387 1 3.2 38.4 0 -11.708
358 2 8 36.8 1.6 -9.69891
389 1 6.4 38.4 0 -11.7174
360 2 11.2 36.8 1.6 -9.8228
391 1 9.6 38.4 0 -11.617
362 1 14.4 36.8 1.6 -11.8359
393 2 12.8 38.4 0 -9.75932
364 1 17.6 36.8 1.6 -11.8829
395 3 16 38.4 0 -11.2568
366 2 20.8 36.8 1.6 -9.82122
397 2 19.2 38.4 0 -9.90308
368 2 24 36.8 1.6 -9.80952
399 1 22.4 38.4 0 -11.8181
401 1 25.6 38.4 0 -11.812
370 3 27.2 36.8 1.6 -11.1654
403 1 28.8 38.4 0 -11.7878
372 3 30.4 36.8 1.6 -11.2273
405 2 32 38.4 0 -9.69833
374 1 33.6 36.8 1.6 -11.7123
407 3 35.2 38.4 0 -11.1271
376 1 36.8 36.8 1.6 -11.7581
409 3 38.4 38.4 0 -11.1997
378 1 40 36.8 1.6 -11.7117
411 2 41.6 38.4 0 -9.85729
380 3 43.2 36.8 1.6 -11.2242
413 1 44.8 38.4 0 -11.7182
382 2 46.4 36.8 1.6 -9.69171
415 1 48 38.4 0 -11.7635
384 2 49.6 36.8 1.6 -9.77819
386 3 1.6 40 1.6 -11.2054
417 1 0 41.6 0 -11.8118
388 3 4.8 40 1.6 -11.1664
419 1 3.2 41.6 0 -11.7981
390 3 8 40 1.6 -11.1249
421 1 6.4 41.6 0 -11.7979
392 2 11.2 40 1.6 -9.80791
423 1 9.6 41.6 0 -11.7278
394 1 14.4 40 1.6 -11.7228
425 2 12.8 41.6 0 -9.69377
396 1 17.6 40 1.6 -11.7603
427 2 16 41.6 0 -9.752
398 2 20.8 40 1.6 -9.83094
429 2 19.2 41.6 0 -9.74709
400 3 24 40 1.6 -11.2272
431 1 22.4 41.6 0 -11.7269
433 1 25.6 41.6 0 -11.8419
402 3 27.2 40 1.6 -11.2363
435 1 28.8 41.6 0 -11.8141
404 2 30.4 40 1.6 -9.81743
437 2 32 41.6 0 -9.8001
406 1 33.6 40 1.6 -11.7412
439 3 35.2 41.6 0 -11.198
408 1 36.8 40 1.6 -11.7706
441 2 38.4 41.6 0 -9.65593
410 1 40 40 1.6 -11.6917
443 1 41.6 41.6 0 -11.6408
412 3 43.2 40 1.6 -11.2639
445 1 44.8 41.6 0 -11.7803
414 3 46.4 40 1.6 -11.1251
447 1 48 41.6 0 -11.8122
416 3 49.6 40 1.6 -11.2051
418 3 1.6 43.2 1.6 -11.1645
449 1 0 44.8 0 -11.8415
420 2 4.8 43.2 1.6 -9.70683
451 1 3.2 44.8 0 -11.7826
422 3 8 43.2 1.6 -11.1667
453 1 6.4 44.8 0 -11.7708
424 2 11.2 43.2 1.6 -9.83319
455 1 9.6 44.8 0 -11.7382
426 1 14.4 43.2 1.6 -11.7529
457 2 12.8 44.8 0 -9.78847
428 1 17.6 43.2 1.6 -11.6958
459 3 16 44.8 0 -11.2236
430 1 20.8 43.2 1.6 -11.588
461 1 19.2 44.8 0 -11.6345
432 2 24 43.2 1.6 -9.73074
463 1 22.4 44.8 0 -11.6587
465 1 25.6 44.8 0 -11.8047
434 3 27.2 43.2 1.6 -11.3026
467 2 28.8 44.8 0 -9.80661
436 3 30.4 43.2 1.6 -11.3501
469 2 32 44.8 0 -9.86192
438 2 33.6 43.2 1.6 -9.87031
471 3 35.2 44.8 0 -11.3444
440 1 36.8 43.2 1.6 -11.7815
473 2 38.4 44.8 0 -9.7699
442 1 40 43.2 1.6 -11.5714
475 1 41.6 44.8 0 -11.7098
444 3 43.2 43.2 1.6 -11.2354
477 1 44.8 44.8 0 -11.8415
446 3 46.4 43.2 1.6 -11.2426
479 1 48 44.8 0 -11.8417
448 3 49.6 43.2 1.6 -11.2417
450 3 1.6 46.4 1.6 -11.2048
481 1 0 48 0 -11.7808
452 3 4.8 46.4 1.6 -11.1651
483 1 3.2 48 0 -11.7877
454 3 8 46.4 1.6 -11.2677
485 1 6.4 48 0 -11.7196
456 2 11.2 46.4 1.6 -9.77396
487 2 9.6 48 0 -9.78619
458 1 14.4 46.4 1.6 -11.8431
489 3 12.8 48 0 -11.1622
460 2 17.6 46.4 1.6 -9.78914
491 3 16 48 0 -11.3003
462 2 20.8 46.4 1.6 -9.72068
493 1 19.2 48 0 -11.7052
464 2 24 46.4 1.6 -9.78627
495 1 22.4 48 0 -11.7502
497 1 25.6 48 0 -11.8133
466 3 27.2 46.4 1.6 -11.2677
499 1 28.8 48 0 -11.8096
468 2 30.4 46.4 1.6 -9.80061
501 1 32 48 0 -11.7243
470 2 33.6 46.4 1.6 -9.80138
503 1 35.2 48 0 -11.6817
472 2 36.8 46.4 1.6 -9.80564
505 1 38.4 48 0 -11.7189
474 3 40 46.4 1.6 -11.2265
507 1 41.6 48 0 -11.8117
476 3 43.2 46.4 1.6 -11.2759
509 1 44.8 48 0 -11.8415
478 3 46.4 46.4 1.6 -11.2039
511 1 48 48 0 -11.8124
480 3 49.6 46.4 1.6 -11.2426
482 3 1.6 49.6 1.6 -11.1661
484 3 4.8 49.6 1.6 -11.1657
486 2 8 49.6 1.6 -9.81092
488 1 11.2 49.6 1.6 -11.7358
490 1 14.4 49.6 1.6 -11.7569
492 1 17.6 49.6 1.6 -11.7844
494 1 20.8 49.6 1.6 -11.6946
496 2 24 49.6 1.6 -9.80526
498 3 27.2 49.6 1.6 -11.228
500 2 30.4 49.6 1.6 -9.6912
502 2 33.6 49.6 1.6 -9.75088
504 2 36.8 49.6 1.6 -9.743
506 2 40 49.6 1.6 -9.83209
508 3 43.2 49.6 1.6 -11.1955
510 3 46.4 49.6 1.6 -11.2753
512 3 49.6 49.6 1.6 -11.1658
513 1 0 0 3.2 -11.813
514 3 1.6 1.6 4.8 -11.425
515 1 3.2 0 3.2 -11.8448
516 2 4.8 1.6 4.8 -9.88155
517 1 6.4 0 3.2 -11.811
518 3 8 1.6 4.8 -11.2372
519 2 9.6 0 3.2 -9.80697
520 2 11.2 1.6 4.8 -9.79601
521 2 12.8 0 3.2 -9.70031
522 1 14.4 1.6 4.8 -11.6166
523 2 16 0 3.2 -9.75929
524 2 17.6 1.6 4.8 -9.77337
525 2 19.2 0 3.2 -9.78143
526 1 20.8 1.6 4.8 -11.7561
527 2 22.4 0 3.2 -9.74711
528 1 24 1.6 4.8 -11.7844
529 3 25.6 0 3.2 -11.2419
530 2 27.2 1.6 4.8 -9.81967
531 1 28.8 0 3.2 -11.7502
532 2 30.4 1.6 4.8 -9.87119
533 2 32 0 3.2 -9.80045
534 2 33.6 1.6 4.8 -9.83262
535 2 35.2 0 3.2 -9.86567
536 1 36.8 1.6 4.8 -11.7778
537 3 38.4 0 3.2 -11.3473
538 1 40 1.6 4.8 -11.828
539 2 41.6 0 3.2 -9.85537
540 1 43.2 1.6 4.8 -11.7379
541 2 44.8 0 3.2 -9.78649
542 2 46.4 1.6 4.8 -9.87529
543 1 48 0 3.2 -11.8335
544 3 49.6 1.6 4.8 -11.3433
545 1 0 3.2 3.2 -11.7922
546 2 1.6 4.8 4.8 -9.88232
547 2 3.2 3.2 3.2 -9.8377
548 2 4.8 4.8 4.8 -9.80843
549 1 6.4 3.2 3.2 -11.8139
550 3 8 4.8 4.8 -11.2039
551 1 9.6 3.2 3.2 -11.8136
552 3 11.2 4.8 4.8 -11.2389
553 1 12.8 3.2 3.2 -11.7298
554 2 14.4 4.8 4.8 -9.6585
555 1 16 3.2 3.2 -11.6305
556 2 17.6 4.8 4.8 -9.8045
557 2 19.2 3.2 3.2 -9.7898
558 1 20.8 4.8 4.8 -11.8178
559 3 22.4 3.2 3.2 -11.2246
560 1 24 4.8 4.8 -11.8183
561 2 25.6 3.2 3.2 -9.88295
562 2 27.2 4.8 4.8 -9.88151
563 2 28.8 3.2 3.2 -9.80647
564 2 30.4 4.8 4.8 -9.84364
565 2 32 3.2 3.2 -9.86873
566 1 33.6 4.8 4.8 -11.7333
567 2 35.2 3.2 3.2 -9.8517
568 1 36.8 4.8 4.8 -11.6998
569 2 38.4 3.2 3.2 -9.8498
570 1 40 4.8 4.8 -11.8005
571 2 41.6 3.2 3.2 -9.85417
572 2 43.2 4.8 4.8 -9.8837
573 1 44.8 3.2 3.2 -11.7664
574 3 46.4 4.8 4.8 -11.315
575 1 48 3.2 3.2 -11.7836
576 2 49.6 4.8 4.8 -9.85827
577 1 0 6.4 3.2 -11.7491
578 3 1.6 8 4.8 -11.2746
579 1 3.2 6.4 3.2 -11.7875
580 3 4.8 8 4.8 -11.2036
581 1 6.4 6.4 3.2 -11.8122
582 3 8 8 4.8 -11.2417
583 1 9.6 6.4 3.2 -11.8417
584 3 11.2 8 4.8 -11.242
585 1 12.8 6.4 3.2 -11.812
586 3 14.4 8 4.8 -11.1989
587 1 16 6.4 3.2 -11.7574
588 2 17.6 8 4.8 -9.85216
589 2 19.2 6.4 3.2 -9.87937
590 1 20.8 8 4.8 -11.848
591 3 22.4 6.4 3.2 -11.2905
592 1 24 8 4.8 -11.7914
593 2 25.6 6.4 3.2 -9.83773
594 2 27.2 8 4.8 -9.85455
595 1 28.8 6.4 3.2 -11.7658
596 2 30.4 8 4.8 -9.80736
597 1 32 6.4 3.2 -11.7377
598 2 33.6 8 4.8 -9.85179
599 2 35.2 6.4 3.2 -9.79441
600 2 36.8 8 4.8 -9.89175
601 2 38.4 6.4 3.2 -9.88015
602 3 40 8 4.8 -11.3478
603 3 41.6 6.4 3.2 -11.3412
604 3 43.2 8 4.8 -11.3836
605 1 44.8 6.4 3.2 -11.8685
606 3 46.4 8 4.8 -11.3622
607 1 48 6.4 3.2 -11.8396
608 3 49.6 8 4.8 -11.3023
609 1 0 9.6 3.2 -11.8415
610 3 1.6 11.2 4.8 -11.2417
611 1 3.2 9.6 3.2 -11.8417
612 3 4.8 11.2 4.8 -11.2414
613 1 6.4 9.6 3.2 -11.8417
614 3 8 11.2 4.8 -11.2414
615 1 9.6 9.6 3.2 -11.8417
616 3 11.2 11.2 4.8 -11.2414
617 1 12.8 9.6 3.2 -11.8415
618 3 14.4 11.2 4.8 -11.2746
619 1 16 9.6 3.2 -11.8463
620 2 17.6 11.2 4.8 -9.80908
621 2 19.2 9.6 3.2 -9.85847
622 2 20.8 11.2 4.8 -9.77507
623 2 22.4 9.6 3.2 -9.86725
624 2 24 11.2 4.8 -9.78321
625 2 25.6 9.6 3.2 -9.83287
626 2 27.2 11.2 4.8 -9.85708
627 1 28.8 9.6 3.2 -11.7623
628 2 30.4 11.2 4.8 -9.83745
629 1 32 9.6 3.2 -11.726
630 3 33.6 11.2 4.8 -11.2261
631 1 35.2 9.6 3.2 -11.7871
632 3 36.8 11.2 4.8 -11.2392
633 1 38.4 9.6 3.2 -11.8412
634 3 40 11.2 4.8 -11.1648
635 1 41.6 9.6 3.2 -11.8541
636 3 43.2 11.2 4.8 -11.2426
637 1 44.8 9.6 3.2 -11.8117
638 3 46.4 11.2 4.8 -11.242
639 1 48 9.6 3.2 -11.8413
640 3 49.6 11.2 4.8 -11.2036
641 1 0 12.8 3.2 -11.8417
642 3 1.6 14.4 4.8 -11.2417
643 1 3.2 12.8 3.2 -11.8417
644 3 4.8 14.4 4.8 -11.2414
645 1 6.4 12.8 3.2 -11.8417
646 3 8 14.4 4.8 -11.2414
647 1 9.6 12.8 3.2 -11.8417
648 3 11.2 14.4 4.8 -11.2414
649 1 12.8 12.8 3.2 -11.8417
650 3 14.4 14.4 4.8 -11.2417
651 1 16 12.8 3.2 -11.812
652 3 17.6 14.4 4.8 -11.2048
653 1 19.2 12.8 3.2 -11.7873
654 3 20.8 14.4 4.8 -11.2373
655 1 22.4 12.8 3.2 -11.7265
656 2 24 14.4 4.8 -9.79517
657 1 25.6 12.8 3.2 -11.7054
658 2 27.2 14.4 4.8 -9.87286
659 1 28.8 12.8 3.2 -11.7539
660 3 30.4 14.4 4.8 -11.2727
661 1 32 12.8 3.2 -11.7836
662 3 33.6 14.4 4.8 -11.2048
663 1 35.2 12.8 3.2 -11.8122
664 3 36.8 14.4 4.8 -11.2042
665 1 38.4 12.8 3.2 -11.8124
666 2 40 14.4 4.8 -9.70683
667 1 41.6 12.8 3.2 -11.8124
668 3 43.2 14.4 4.8 -11.1639
669 1 44.8 12.8 3.2 -11.8417
670 3 46.4 14.4 4.8 -11.2417
671 1 48 12.8 3.2 -11.8417
672 3 49.6 14.4 4.8 -11.242
673 1 0 16 3.2 -11.8141
674 3 1.6 17.6 4.8 -11.3019
675 1 3.2 16 3.2 -11.8419
676 3 4.8 17.6 4.8 -11.2743
677 1 6.4 16 3.2 -11.8415
678 3 8 17.6 4.8 -11.2042
679 1 9.6 16 3.2 -11.8417
680 3 11.2 17.6 4.8 -11.2417
681 1 12.8 16 3.2 -11.8417
682 3 14.4 17.6 4.8 -11.242
683 1 16 16 3.2 -11.8122
684 3 17.6 17.6 4.8 -11.2039
685 1 19.2 16 3.2 -11.8375
686 3 20.8 17.6 4.8 -11.3
687 2 22.4 16 3.2 -9.84991
688 1 24 17.6 4.8 -11.731
689 2 25.6 16 3.2 -9.85953
690 1 27.2 17.6 4.8 -11.7141
691 2 28.8 16 3.2 -9.78268
692 2 30.4 17.6 4.8 -9.78992
693 1 32 16 3.2 -11.8186
694 2 33.6 17.6 4.8 -9.7908
695 1 35.2 16 3.2 -11.8139
696 3 36.8 17.6 4.8 -11.2394
697 1 38.4 16 3.2 -11.8122
698 3 40 17.6 4.8 -11.1251
699 1 41.6 16 3.2 -11.7846
700 2 43.2 17.6 4.8 -9.70706
701 1 44.8 16 3.2 -11.8124
702 3 46.4 17.6 4.8 -11.1645
703 1 48 16 3.2 -11.812
704 3 49.6 17.6 4.8 -11.2748
705 2 0 19.2 3.2 -9.83368
706 2 1.6 20.8 4.8 -9.89914
707 2 3.2 19.2 3.2 -9.87057
708 2 4.8 20.8 4.8 -9.84248
709 1 6.4 19.2 3.2 -11.7886
710 2 8 20.8 4.8 -9.76179
711 1 9.6 19.2 3.2 -11.8141
712 3 11.2 20.8 4.8 -11.3324
713 1 12.8 19.2 3.2 -11.8419
714 3 14.4 20.8 4.8 -11.2738
715 1 16 19.2 3.2 -11.7881
716 3 17.6 20.8 4.8 -11.1654
717 1 19.2 19.2 3.2 -11.6845
718 2 20.8 20.8 4.8 -9.78264
719 2 22.4 19.2 3.2 -9.80429
720 1 24 20.8 4.8 -11.6953
721 2 25.6 19.2 3.2 -9.72336
722 1 27.2 20.8 4.8 -11.7198
723 2 28.8 19.2 3.2 -9.78387
724 1 30.4 20.8 4.8 -11.6966
725 2 32 19.2 3.2 -9.75506
726 1 33.6 20.8 4.8 -11.6796
727 2 35.2 19.2 3.2 -9.83048
728 2 36.8 20.8 4.8 -9.85418
729 1 38.4 19.2 3.2 -11.8134
730 2 40 20.8 4.8 -9.82602
731 1 41.6 19.2 3.2 -11.7285
732 2 43.2 20.8 4.8 -9.80402
733 1 44.8 19.2 3.2 -11.7289
734 2 46.4 20.8 4.8 -9.78188
735 1 48 19.2 3.2 -11.7279
736 3 49.6 20.8 4.8 -11.189
737 3 0 22.4 3.2 -11.2349
738 3 1.6 24 4.8 -11.3337
739 3 3.2 22.4 3.2 -11.3152
740 1 4.8 24 4.8 -11.7471
741 2 6.4 22.4 3.2 -9.78452
742 1 8 24 4.8 -11.6528
743 2 9.6 22.4 3.2 -9.79469
744 3 11.2 24 4.8 -11.3394
745 2 12.8 22.4 3.2 -9.81754
746 3 14.4 24 4.8 -11.3346
747 1 16 22.4 3.2 -11.7826
748 3 17.6 24 4.8 -11.2402
749 1 19.2 22.4 3.2 -11.6708
750 2 20.8 24 4.8 -9.80949
751 2 22.4 22.4 3.2 -9.70994
752 1 24 24 4.8 -11.793
753 2 25.6 22.4 3.2 -9.74662
754 1 27.2 24 4.8 -11.8122
755 3 28.8 22.4 3.2 -11.1251
756 1 30.4 24 4.8 -11.7811
757 2 32 22.4 3.2 -9.67724
758 1 33.6 24 4.8 -11.7504
759 3 35.2 22.4 3.2 -11.2569
760 1 36.8 24 4.8 -11.7897
761 2 38.4 22.4 3.2 -9.85817
762 1 40 24 4.8 -11.7846
763 2 41.6 22.4 3.2 -9.84032
764 1 43.2 24 4.8 -11.7903
765 2 44.8 22.4 3.2 -9.83885
766 2 46.4 24 4.8 -9.82871
767 1 48 22.4 3.2 -11.6709
768 2 49.6 24 4.8 -9.83976
769 2 0 25.6 3.2 -9.84787
771 3 3.2 25.6 3.2 -11.256
773 2 6.4 25.6 3.2 -9.6908
775 3 9.6 25.6 3.2 -11.2223
777 2 12.8 25.6 3.2 -9.83045
779 1 16 25.6 3.2 -11.8179
781 2 19.2 25.6 3.2 -9.83437
783 2 22.4 25.6 3.2 -9.87416
785 3 25.6 25.6 3.2 -11.2386
787 3 28.8 25.6 3.2 -11.2423
789 3 32 25.6 3.2 -11.2036
791 3 35.2 25.6 3.2 -11.2429
793 3 38.4 25.6 3.2 -11.1642
795 3 41.6 25.6 3.2 -11.2048
797 3 44.8 25.6 3.2 -11.293
799 2 48 25.6 3.2 -9.7962
770 1 1.6 27.2 4.8 -11.6644
801 1 0 28.8 3.2 -11.7225
772 1 4.8 27.2 4.8 -11.7002
803 1 3.2 28.8 3.2 -11.6383
774 1 8 27.2 4.8 -11.7265
805 2 6.4 28.8 3.2 -9.77182
776 2 11.2 27.2 4.8 -9.85654
807 2 9.6 28.8 3.2 -9.7884
778 3 14.4 27.2 4.8 -11.2955
809 1 12.8 28.8 3.2 -11.7084
780 2 17.6 27.2 4.8 -9.86671
811 2 16 28.8 3.2 -9.80818
782 2 20.8 27.2 4.8 -9.91642
813 2 19.2 28.8 3.2 -9.83366
784 1 24 27.2 4.8 -11.7863
815 2 22.4 28.8 3.2 -9.85419
817 3 25.6 28.8 3.2 -11.1653
786 1 27.2 27.2 4.8 -11.8417
819 3 28.8 28.8 3.2 -11.1654
788 1 30.4 27.2 4.8 -11.8417
821 3 32 28.8 3.2 -11.2429
790 1 33.6 27.2 4.8 -11.8122
823 3 35.2 28.8 3.2 -11.1639
792 1 36.8 27.2 4.8 -11.7844
825 3 38.4 28.8 3.2 -11.2429
794 1 40 27.2 4.8 -11.8124
827 3 41.6 28.8 3.2 -11.2423
796 1 43.2 27.2 4.8 -11.8117
829 3 44.8 28.8 3.2 -11.3282
798 1 46.4 27.2 4.8 -11.8133
831 2 48 28.8 3.2 -9.89207
800 1 49.6 27.2 4.8 -11.6892
802 3 1.6 30.4 4.8 -11.1971
833 1 0 32 3.2 -11.8773
804 2 4.8 30.4 4.8 -9.78903
835 1 3.2 32 3.2 -11.7564
806 2 8 30.4 4.8 -9.85859
837 2 6.4 32 3.2 -9.81632
808 2 11.2 30.4 4.8 -9.89096
839 2 9.6 32 3.2 -9.92323
810 2 14.4 30.4 4.8 -9.88022
841 3 12.8 32 3.2 -11.4043
812 1 17.6 30.4 4.8 -11.7921
843 3 16 32 3.2 -11.4151
814 2 20.8 30.4 4.8 -9.78896
845 3 19.2 32 3.2 -11.3337
816 1 24 30.4 4.8 -11.7705
847 3 22.4 32 3.2 -11.3468
849 1 25.6 32 3.2 -11.6822
818 1 27.2 30.4 4.8 -11.6923
851 2 28.8 32 3.2 -9.75367
820 1 30.4 30.4 4.8 -11.7868
853 3 32 32 3.2 -11.2928
822 1 33.6 30.4 4.8 -11.7927
855 2 35.2 32 3.2 -9.8092
824 1 36.8 30.4 4.8 -11.7927
857 3 38.4 32 3.2 -11.2268
826 1 40 30.4 4.8 -11.8134
859 3 41.6 32 3.2 -11.294
828 1 43.2 30.4 4.8 -11.8334
861 2 44.8 32 3.2 -9.88188
830 2 46.4 30.4 4.8 -9.83333
863 1 48 32 3.2 -11.817
832 3 49.6 30.4 4.8 -11.2948
834 3 1.6 33.6 4.8 -11.2432
865 1 0 35.2 3.2 -11.8095
836 3 4.8 33.6 4.8 -11.2003
867 1 3.2 35.2 3.2 -11.78
838 3 8 33.6 4.8 -11.3032
869 1 6.4 35.2 3.2 -11.7894
840 3 11.2 33.6 4.8 -11.3747
871 1 9.6 35.2 3.2 -11.8291
842 3 14.4 33.6 4.8 -11.3898
873 3 12.8 35.2 3.2 -11.4295
844 1 17.6 33.6 4.8 -11.826
875 3 16 35.2 3.2 -11.4475
846 1 20.8 33.6 4.8 -11.8045
877 3 19.2 35.2 3.2 -11.2962
848 2 24 33.6 4.8 -9.82675
879 2 22.4 35.2 3.2 -9.83987
881 1 25.6 35.2 3.2 -11.7247
850 2 27.2 33.6 4.8 -9.73197
883 1 28.8 35.2 3.2 -11.789
852 2 30.4 33.6 4.8 -9.85588
885 2 32 35.2 3.2 -9.83887
854 2 33.6 33.6 4.8 -9.85465
887 2 35.2 35.2 3.2 -9.80765
856 2 36.8 33.6 4.8 -9.82869
889 2 38.4 35.2 3.2 -9.78299
858 2 40 33.6 4.8 -9.85455
891 1 41.6 35.2 3.2 -11.7534
860 3 43.2 33.6 4.8 -11.281
893 1 44.8 35.2 3.2 -11.7231
862 2 46.4 33.6 4.8 -9.75152
895 1 48 35.2 3.2 -11.6923
864 3 49.6 33.6 4.8 -11.1241
866 3 1.6 36.8 4.8 -11.2039
897 1 0 38.4 3.2 -11.7808
868 3 4.8 36.8 4.8 -11.2042
899 1 3.2 38.4 3.2 -11.8124
870 3 8 36.8 4.8 -11.2045
901 1 6.4 38.4 3.2 -11.7808
872 3 11.2 36.8 4.8 -11.3805
903 1 9.6 38.4 3.2 -11.771
874 2 14.4 36.8 4.8 -9.90944
905 3 12.8 38.4 3.2 -11.3649
876 1 17.6 36.8 4.8 -11.7797
907 3 16 38.4 3.2 -11.2331
878 1 20.8 36.8 4.8 -11.7612
909 2 19.2 38.4 3.2 -9.80908
880 2 24 36.8 4.8 -9.7557
911 2 22.4 38.4 3.2 -9.81254
913 1 25.6 38.4 3.2 -11.7682
882 3 27.2 36.8 4.8 -11.1632
915 1 28.8 38.4 3.2 -11.7833
884 3 30.4 36.8 4.8 -11.2371
917 1 32 38.4 3.2 -11.7618
886 3 33.6 36.8 4.8 -11.2654
919 2 35.2 38.4 3.2 -9.81899
888 2 36.8 36.8 4.8 -9.86449
921 2 38.4 38.4 3.2 -9.82881
890 3 40 36.8 4.8 -11.2271
923 2 41.6 38.4 3.2 -9.82943
892 3 43.2 36.8 4.8 -11.2373
925 1 44.8 38.4 3.2 -11.7474
894 2 46.4 36.8 4.8 -9.58208
927 1 48 38.4 3.2 -11.6889
896 2 49.6 36.8 4.8 -9.67724
898 3 1.6 40 4.8 -11.2036
929 1 0 41.6 3.2 -11.812
900 3 4.8 40 4.8 -11.2426
931 1 3.2 41.6 3.2 -11.7846
902 3 8 40 4.8 -11.2042
933 1 6.4 41.6 3.2 -11.8124
904 2 11.2 40 4.8 -9.88375
935 1 9.6 41.6 3.2 -11.7868
906 1 14.4 40 4.8 -11.8208
937 2 12.8 41.6 3.2 -9.88036
908 1 17.6 40 4.8 -11.7519
939 2 16 41.6 3.2 -9.72076
910 1 20.8 40 4.8 -11.7873
941 3 19.2 41.6 3.2 -11.1203
912 1 24 40 4.8 -11.7579
943 2 22.4 41.6 3.2 -9.78646
945 2 25.6 41.6 3.2 -9.78651
914 2 27.2 40 4.8 -9.81436
947 1 28.8 41.6 3.2 -11.8141
916 3 30.4 40 4.8 -11.2363
949 2 32 41.6 3.2 -9.83743
918 3 33.6 40 4.8 -11.327
951 3 35.2 41.6 3.2 -11.3614
920 3 36.8 40 4.8 -11.3154
953 2 38.4 41.6 3.2 -9.75234
922 2 40 40 4.8 -9.78208
955 2 41.6 41.6 3.2 -9.74991
924 2 43.2 40 4.8 -9.77795
957 1 44.8 41.6 3.2 -11.7829
926 2 46.4 40 4.8 -9.74348
959 1 48 41.6 3.2 -11.8423
928 3 49.6 40 4.8 -11.2353
930 2 1.6 43.2 4.8 -9.77565
961 1 0 44.8 3.2 -11.8144
932 3 4.8 43.2 4.8 -11.1245
963 1 3.2 44.8 3.2 -11.7525
934 3 8 43.2 4.8 -11.2054
965 1 6.4 44.8 3.2 -11.8122
936 3 11.2 43.2 4.8 -11.3086
967 1 9.6 44.8 3.2 -11.7817
938 2 14.4 43.2 4.8 -9.78778
969 3 12.8 44.8 3.2 -11.2776
940 1 17.6 43.2 4.8 -11.7607
971 3 16 44.8 3.2 -11.2667
942 1 20.8 43.2 4.8 -11.7501
973 2 19.2 44.8 3.2 -9.756
944 1 24 43.2 4.8 -11.7291
975 2 22.4 44.8 3.2 -9.70287
977 1 25.6 44.8 3.2 -11.7043
946 2 27.2 43.2 4.8 -9.81051
979 1 28.8 44.8 3.2 -11.7791
948 3 30.4 43.2 4.8 -11.2372
981 1 32 44.8 3.2 -11.8202
950 2 33.6 43.2 4.8 -9.8806
983 2 35.2 44.8 3.2 -9.86921
952 2 36.8 43.2 4.8 -9.81129
985 2 38.4 44.8 3.2 -9.83677
954 1 40 43.2 4.8 -11.6228
987 2 41.6 44.8 3.2 -9.75976
956 2 43.2 43.2 4.8 -9.72744
989 1 44.8 44.8 3.2 -11.7833
958 3 46.4 43.2 4.8 -11.196
991 1 48 44.8 3.2 -11.8117
960 3 49.6 43.2 4.8 -11.3392
962 2 1.6 46.4 4.8 -9.83663
993 1 0 48 3.2 -11.7872
964 3 4.8 46.4 4.8 -11.2392
995 1 3.2 48 3.2 -11.8141
966 3 8 46.4 4.8 -11.2026
997 1 6.4 48 3.2 -11.8416
968 1 11.2 46.4 4.8 -11.6322
999 2 9.6 48 3.2 -9.75972
970 1 14.4 46.4 4.8 -11.758
1001 2 12.8 48 3.2 -9.7165
972 1 17.6 46.4 4.8 -11.7803
1003 3 16 48 3.2 -11.1929
974 1 20.8 46.4 4.8 -11.8141
1005 3 19.2 48 3.2 -11.1943
976 1 24 46.4 4.8 -11.7316
1007 3 22.4 48 3.2 -11.2278
1009 2 25.6 48 3.2 -9.79888
978 2 27.2 46.4 4.8 -9.79216
1011 1 28.8 48 3.2 -11.6961
980 3 30.4 46.4 4.8 -11.1994
1013 1 32 48 3.2 -11.7241
982 3 33.6 46.4 4.8 -11.2028
1015 1 35.2 48 3.2 -11.7273
984 2 36.8 46.4 4.8 -9.84244
1017 1 38.4 48 3.2 -11.7519
986 2 40 46.4 4.8 -9.8498
1019 1 41.6 48 3.2 -11.7349
988 2 43.2 46.4 4.8 -9.7419
1021 1 44.8 48 3.2 -11.7298
990 2 46.4 46.4 4.8 -9.78204
1023 1 48 48 3.2 -11.787
992 3 49.6 46.4 4.8 -11.2264
994 2 1.6 49.6 4.8 -9.83764
996 3 4.8 49.6 4.8 -11.2657
998 3 8 49.6 4.8 -11.235
1000 1 11.2 49.6 4.8 -11.6044
1002 1 14.4 49.6 4.8 -11.6643
1004 1 17.6 49.6 4.8 -11.7561
1006 1 20.8 49.6 4.8 -11.7803
1008 1 24 49.6 4.8 -11.7844
1010 1 27.2 49.6 4.8 -11.6993
1012 2 30.4 49.6 4.8 -9.79506
1014 3 33.6 49.6 4.8 -11.1888
1016 2 36.8 49.6 4.8 -9.83459
1018 2 40 49.6 4.8 -9.80321
1020 1 43.2 49.6 4.8 -11.7034
1022 2 46.4 49.6 4.8 -9.82409
1024 2 49.6 49.6 4.8 -9.86027
1025 2 0 0 6.4 -9.91543
1026 2 1.6 1.6 8 -9.8881
1027 2 3.2 0 6.4 -9.89333
1028 3 4.8 1.6 8 -11.2925
1029 1 6.4 0 6.4 -11.817
1030 3 8 1.6 8 -11.2429
1031 1 9.6 0 6.4 -11.7572
1032 3 11.2 1.6 8 -11.2998
1033 2 12.8 0 6.4 -9.79563
1034 3 14.4 1.6 8 -11.2243
1035 2 16 0 6.4 -9.76571
1036 2 17.6 1.6 8 -9.83389
1037 3 19.2 0 6.4 -11.2303
1038 1 20.8 1.6 8 -11.7873
1039 3 22.4 0 6.4 -11.2051
1040 1 24 1.6 8 -11.7806
1041 3 25.6 0 6.4 -11.2016
1042 1 27.2 1.6 8 -11.7142
1043 2 28.8 0 6.4 -9.75664
1044 2 30.4 1.6 8 -9.8411
1045 1 32 0 6.4 -11.7985
1046 2 33.6 1.6 8 -9.82872
1047 1 35.2 0 6.4 -11.7307
1048 2 36.8 1.6 8 -9.8198
1049 3 38.4 0 6.4 -11.3548
1050 1 40 1.6 8 -11.8677
1051 3 41.6 0 6.4 -11.2397
1052 1 43.2 1.6 8 -11.812
1053 3 44.8 0 6.4 -11.2654
1054 1 46.4 1.6 8 -11.8136
1055 3 48 0 6.4 -11.3159
1056 1 49.6 1.6 8 -11.8577
1057 3 0 3.2 6.4 -11.4034
1058 2 1.6 4.8 8 -9.89738
1059 2 3.2 3.2 6.4 -9.88977
1060 3 4.8 4.8 8 -11.1998
1061 1 6.4 3.2 6.4 -11.8141
1062 3 8 4.8 8 -11.242
1063 1 9.6 3.2 6.4 -11.8419
1064 3 11.2 4.8 8 -11.274
1065 2 12.8 3.2 6.4 -9.755
1066 2 14.4 4.8 8 -9.81893
1067 1 16 3.2 6.4 -11.707
1068 3 17.6 4.8 8 -11.2702
1069 2 19.2 3.2 6.4 -9.86018
1070 1 20.8 4.8 8 -11.8032
1071 3 22.4 3.2 6.4 -11.1664
1072 1 24 4.8 8 -11.8144
1073 2 25.6 3.2 6.4 -9.78941
1074 2 27.2 4.8 8 -9.79264
1075 1 28.8 3.2 6.4 -11.7511
1076 2 30.4 4.8 8 -9.84553
1077 2 32 3.2 6.4 -9.83837
1078 1 33.6 4.8 8 -11.8135
1079 2 35.2 3.2 6.4 -9.75986
1080 1 36.8 4.8 8 -11.7846
1081 3 38.4 3.2 6.4 -11.1964
1082 1 40 4.8 8 -11.7581
1083 3 41.6 3.2 6.4 -11.2024
1084 1 43.2 4.8 8 -11.8157
1085 2 44.8 3.2 6.4 -9.83935
1086 1 46.4 4.8 8 -11.8004
1087 2 48 3.2 6.4 -9.87738
1088 1 49.6 4.8 8 -11.7892
1089 2 0 6.4 6.4 -9.87057
1090 3 1.6 8 8 -11.3028
1091 1 3.2 6.4 6.4 -11.8188
1092 3 4.8 8 8 -11.2423
1093 1 6.4 6.4 6.4 -11.8122
1094 3 8 8 8 -11.2414
1095 1 9.6 6.4 6.4 -11.8415
1096 3 11.2 8 8 -11.2039
1097 1 12.8 6.4 6.4 -11.7833
1098 2 14.4 8 8 -9.78746
1099 1 16 6.4 6.4 -11.7259
1100 1 17.6 8 8 -11.757
1101 3 19.2 6.4 6.4 -11.2609
1102 1 20.8 8 8 -11.7795
1103 3 22.4 6.4 6.4 -11.2435