ITEM: TIMESTEP
0
ITEM: NUMBER OF ATOMS
8192
ITEM: BOX BOUNDS pp pp pp
0.0000000000000000e+00 5.1200000000000003e+01
0.0000000000000000e+00 5.1200000000000003e+01
0.0000000000000000e+00 5.1200000000000003e+01
ITEM: ATOMS id type x y z c_eng
1 1 0 0 0 -11.8115
2 3 1.6 1.6 1.6 -11.3282
3 1 3.2 0 0 -11.7846
4 2 4.8 1.6 1.6 -9.78038
5 1 6.4 0 0 -11.7253
6 3 8 1.6 1.6 -11.2996
7 2 9.6 0 0 -9.84859
8 2 11.2 1.6 1.6 -9.75742
9 2 12.8 0 0 -9.77766
10 2 14.4 1.6 1.6 -9.75419
11 2 16 0 0 -9.83339
12 2 17.6 1.6 1.6 -9.85469
13 2 19.2 0 0 -9.78452
14 1 20.8 1.6 1.6 -11.7632
15 2 22.4 0 0 -9.80377
16 2 24 1.6 1.6 -9.80825
17 1 25.6 0 0 -11.8188
18 3 27.2 1.6 1.6 -11.2402
19 1 28.8 0 0 -11.8413
20 3 30.4 1.6 1.6 -11.266
21 1 32 0 0 -11.8419
22 2 33.6 1.6 1.6 -9.87877
23 1 35.2 0 0 -11.8134
24 2 36.8 1.6 1.6 -9.83256
25 1 38.4 0 0 -11.8274
26 2 40 1.6 1.6 -9.84967
27 1 41.6 0 0 -11.8274
28 2 43.2 1.6 1.6 -9.81019
29 1 44.8 0 0 -11.7554
30 3 46.4 1.6 1.6 -11.1622
31 1 48 0 0 -11.7833
32 3 49.6 1.6 1.6 -11.2753
33 1 0 3.2 0 -11.8094
34 2 1.6 4.8 1.6 -9.83876
35 2 3.2 3.2 0 -9.83771
36 2 4.8 4.8 1.6 -9.83707
37 1 6.4 3.2 0 -11.7593
38 3 8 4.8 1.6 -11.2353
39 1 9.6 3.2 0 -11.8141
40 3 11.2 4.8 1.6 -11.2718
41 1 12.8 3.2 0 -11.7868
42 3 14.4 4.8 1.6 -11.2054
43 1 16 3.2 0 -11.7905
44 3 17.6 4.8 1.6 -11.2873
45 2 19.2 3.2 0 -9.83299
46 1 20.8 4.8 1.6 -11.7216
47 2 22.4 3.2 0 -9.82891
48 2 24 4.8 1.6 -9.76224
49 1 25.6 3.2 0 -11.7868
50 3 27.2 4.8 1.6 -11.2016
51 1 28.8 3.2 0 -11.8122
52 2 30.4 4.8 1.6 -9.75874
53 1 32 3.2 0 -11.7872
54 2 33.6 4.8 1.6 -9.78525
55 1 35.2 3.2 0 -11.7556
56 2 36.8 4.8 1.6 -9.77716
57 1 38.4 3.2 0 -11.7263
58 2 40 4.8 1.6 -9.80414
59 1 41.6 3.2 0 -11.7273
60 2 43.2 4.8 1.6 -9.66856
61 1 44.8 3.2 0 -11.6895
62 3 46.4 4.8 1.6 -11.1605
63 1 48 3.2 0 -11.7914
64 2 49.6 4.8 1.6 -9.79331
65 1 0 6.4 0 -11.7599
66 3 1.6 8 1.6 -11.2361
67 1 3.2 6.4 0 -11.8165
68 3 4.8 8 1.6 -11.2743
69 1 6.4 6.4 0 -11.8131
70 3 8 8 1.6 -11.271
71 2 9.6 6.4 0 -9.76441
72 3 11.2 8 1.6 -11.3081
73 1 12.8 6.4 0 -11.8681
74 3 14.4 8 1.6 -11.2036
75 1 16 6.4 0 -11.8175
76 2 17.6 8 1.6 -9.81757
77 2 19.2 6.4 0 -9.74179
78 1 20.8 8 1.6 -11.65
79 2 22.4 6.4 0 -9.75008
80 1 24 8 1.6 -11.7012
81 1 25.6 6.4 0 -11.8215
82 3 27.2 8 1.6 -11.2019
83 1 28.8 6.4 0 -11.8117
84 3 30.4 8 1.6 -11.162
85 1 32 6.4 0 -11.7872
86 2 33.6 8 1.6 -9.82309
87 1 35.2 6.4 0 -11.7846
88 2 36.8 8 1.6 -9.8752
89 1 38.4 6.4 0 -11.7707
90 3 40 8 1.6 -11.2935
91 1 41.6 6.4 0 -11.7692
92 2 43.2 8 1.6 -9.776
93 1 44.8 6.4 0 -11.7561
94 3 46.4 8 1.6 -11.2358
95 2 48 6.4 0 -9.80562
96 3 49.6 8 1.6 -11.2389
97 1 0 9.6 0 -11.8278
98 3 1.6 11.2 1.6 -11.242
99 1 3.2 9.6 0 -11.8119
100 3 4.8 11.2 1.6 -11.2036
101 1 6.4 9.6 0 -11.7806
102 2 8 11.2 1.6 -9.70671
103 1 9.6 9.6 0 -11.8064
104 3 11.2 11.2 1.6 -11.1642
105 1 12.8 9.6 0 -11.812
106 3 14.4 11.2 1.6 -11.2426
107 1 16 9.6 0 -11.812
108 3 17.6 11.2 1.6 -11.2389
109 1 19.2 9.6 0 -11.7313
110 3 20.8 11.2 1.6 -11.3758
111 2 22.4 9.6 0 -9.81003
112 2 24 11.2 1.6 -9.93107
113 2 25.6 9.6 0 -9.81505
114 2 27.2 11.2 1.6 -9.74591
115 1 28.8 9.6 0 -11.8099
116 2 30.4 11.2 1.6 -9.72103
117 1 32 9.6 0 -11.7833
118 2 33.6 11.2 1.6 -9.76426
119 2 35.2 9.6 0 -9.74686
120 3 36.8 11.2 1.6 -11.1996
121 1 38.4 9.6 0 -11.8418
122 3 40 11.2 1.6 -11.2423
123 1 41.6 9.6 0 -11.8116
124 3 43.2 11.2 1.6 -11.2033
125 1 44.8 9.6 0 -11.7838
126 3 46.4 11.2 1.6 -11.2423
127 1 48 9.6 0 -11.8459
128 3 49.6 11.2 1.6 -11.242
129 1 0 12.8 0 -11.8116
130 3 1.6 14.4 1.6 -11.1657
131 1 3.2 12.8 0 -11.8415
132 3 4.8 14.4 1.6 -11.2045
133 1 6.4 12.8 0 -11.7811
134 3 8 14.4 1.6 -11.2048
135 1 9.6 12.8 0 -11.7205
136 3 11.2 14.4 1.6 -11.1648
137 1 12.8 12.8 0 -11.7508
138 3 14.4 14.4 1.6 -11.2384
139 1 16 12.8 0 -11.8423
140 3 17.6 14.4 1.6 -11.2743
141 1 19.2 12.8 0 -11.8404
142 3 20.8 14.4 1.6 -11.4453
143 1 22.4 12.8 0 -11.8999
144 2 24 14.4 1.6 -9.97861
145 2 25.6 12.8 0 -9.85896
146 2 27.2 14.4 1.6 -9.81363
147 1 28.8 12.8 0 -11.6909
148 2 30.4 14.4 1.6 -9.80664
149 1 32 12.8 0 -11.7639
150 2 33.6 14.4 1.6 -9.78
151 1 35.2 12.8 0 -11.7783
152 2 36.8 14.4 1.6 -9.70706
153 1 38.4 12.8 0 -11.8118
154 3 40 14.4 1.6 -11.2036
155 1 41.6 12.8 0 -11.8679
156 3 43.2 14.4 1.6 -11.242
157 1 44.8 12.8 0 -11.8117
158 3 46.4 14.4 1.6 -11.1648
159 1 48 12.8 0 -11.8141
160 3 49.6 14.4 1.6 -11.1651
161 1 0 16 0 -11.7062
162 2 1.6 17.6 1.6 -9.72707
163 1 3.2 16 0 -11.7305
164 2 4.8 17.6 1.6 -9.78192
165 1 6.4 16 0 -11.7806
166 3 8 17.6 1.6 -11.0818
167 1 9.6 16 0 -11.7846
168 2 11.2 17.6 1.6 -9.67712
169 1 12.8 16 0 -11.7546
170 2 14.4 17.6 1.6 -9.7778
171 2 16 16 0 -9.79199
172 2 17.6 17.6 1.6 -9.78083
173 1 19.2 16 0 -11.8494
174 3 20.8 17.6 1.6 -11.4229
175 3 22.4 16 0 -11.4257
176 2 24 17.6 1.6 -9.88388
177 2 25.6 16 0 -9.92
178 2 27.2 17.6 1.6 -9.80694
179 1 28.8 16 0 -11.7059
180 2 30.4 17.6 1.6 -9.86686
181 2 32 16 0 -9.81453
182 2 33.6 17.6 1.6 -9.88016
183 1 35.2 16 0 -11.7807
184 3 36.8 17.6 1.6 -11.1588
185 1 38.4 16 0 -11.7849
186 3 40 17.6 1.6 -11.1654
187 1 41.6 16 0 -11.8414
188 3 43.2 17.6 1.6 -11.1657
189 1 44.8 16 0 -11.7826
190 2 46.4 17.6 1.6 -9.7549
191 1 48 16 0 -11.7338
192 2 49.6 17.6 1.6 -9.81264
193 2 0 19.2 0 -9.73291
194 1 1.6 20.8 1.6 -11.7018
195 2 3.2 19.2 0 -9.76091
196 2 4.8 20.8 1.6 -9.76
197 1 6.4 19.2 0 -11.6962
198 2 8 20.8 1.6 -9.7816
199 1 9.6 19.2 0 -11.757
200 2 11.2 20.8 1.6 -9.78387
201 1 12.8 19.2 0 -11.7245
202 2 14.4 20.8 1.6 -9.70646
203 2 16 19.2 0 -9.76566
204 2 17.6 20.8 1.6 -9.70232
205 1 19.2 19.2 0 -11.8034
206 2 20.8 20.8 1.6 -9.85378
207 3 22.4 19.2 0 -11.3545
208 1 24 20.8 1.6 -11.7893
209 2 25.6 19.2 0 -9.82134
210 1 27.2 20.8 1.6 -11.7305
211 1 28.8 19.2 0 -11.6451
212 1 30.4 20.8 1.6 -11.7568
213 2 32 19.2 0 -9.78454
214 1 33.6 20.8 1.6 -11.7257
215 1 35.2 19.2 0 -11.6836
216 2 36.8 20.8 1.6 -9.80866
217 1 38.4 19.2 0 -11.7329
218 2 40 20.8 1.6 -9.80785
219 1 41.6 19.2 0 -11.7785
220 2 43.2 20.8 1.6 -9.75589
221 1 44.8 19.2 0 -11.7123
222 2 46.4 20.8 1.6 -9.70863
223 2 48 19.2 0 -9.79112
224 1 49.6 20.8 1.6 -11.7031
225 2 0 22.4 0 -9.80045
226 1 1.6 24 1.6 -11.7614
227 2 3.2 22.4 0 -9.70866
228 1 4.8 24 1.6 -11.6458
229 1 6.4 22.4 0 -11.6276
230 1 8 24 1.6 -11.6624
231 2 9.6 22.4 0 -9.79995
232 1 11.2 24 1.6 -11.7674
233 1 12.8 22.4 0 -11.7343
234 2 14.4 24 1.6 -9.7615
235 1 16 22.4 0 -11.6557
236 1 17.6 24 1.6 -11.4894
237 2 19.2 22.4 0 -9.71423
238 1 20.8 24 1.6 -11.6327
239 2 22.4 22.4 0 -9.83297
240 1 24 24 1.6 -11.8242
241 3 25.6 22.4 0 -11.1989
242 1 27.2 24 1.6 -11.8412
243 3 28.8 22.4 0 -11.2689
244 1 30.4 24 1.6 -11.8415
245 3 32 22.4 0 -11.2368
246 1 33.6 24 1.6 -11.8122
247 2 35.2 22.4 0 -9.75874
248 1 36.8 24 1.6 -11.7875
249 2 38.4 22.4 0 -9.8126
250 1 40 24 1.6 -11.7872
251 3 41.6 22.4 0 -11.2517
252 1 43.2 24 1.6 -11.7318
253 2 44.8 22.4 0 -9.7989
254 2 46.4 24 1.6 -9.79495
255 2 48 22.4 0 -9.78653
256 2 49.6 24 1.6 -9.83081
257 3 0 25.6 0 -11.2604
259 2 3.2 25.6 0 -9.85438
261 2 6.4 25.6 0 -9.7689
263 3 9.6 25.6 0 -11.2691
265 2 12.8 25.6 0 -9.83566
267 1 16 25.6 0 -11.7071
269 2 19.2 25.6 0 -9.72702
271 3 22.4 25.6 0 -11.2764
273 3 25.6 25.6 0 -11.3588
275 3 28.8 25.6 0 -11.242
277 3 32 25.6 0 -11.2417
279 3 35.2 25.6 0 -11.2039
281 3 38.4 25.6 0 -11.1645
283 3 41.6 25.6 0 -11.2051
285 2 44.8 25.6 0 -9.72798
287 1 48 25.6 0 -11.6507
258 2 1.6 27.2 1.6 -9.81296
289 1 0 28.8 0 -11.6289
260 2 4.8 27.2 1.6 -9.73194
291 2 3.2 28.8 0 -9.76409
262 1 8 27.2 1.6 -11.7506
293 3 6.4 28.8 0 -11.2247
264 1 11.2 27.2 1.6 -11.6892
295 2 9.6 28.8 0 -9.78484
266 2 14.4 27.2 1.6 -9.81478
297 2 12.8 28.8 0 -9.66333
268 2 17.6 27.2 1.6 -9.77019
299 2 16 28.8 0 -9.78613
270 2 20.8 27.2 1.6 -9.81302
301 2 19.2 28.8 0 -9.75621
272 3 24 27.2 1.6 -11.354
303 1 22.4 28.8 0 -11.7839
305 3 25.6 28.8 0 -11.3003
274 1 27.2 27.2 1.6 -11.8779
307 3 28.8 28.8 0 -11.24
276 1 30.4 27.2 1.6 -11.8417
309 3 32 28.8 0 -11.2423
278 1 33.6 27.2 1.6 -11.8417
311 3 35.2 28.8 0 -11.2414
280 1 36.8 27.2 1.6 -11.8417
313 3 38.4 28.8 0 -11.242
282 1 40 27.2 1.6 -11.8417
315 3 41.6 28.8 0 -11.2042
284 1 43.2 27.2 1.6 -11.7806
317 2 44.8 28.8 0 -9.66087
286 1 46.4 27.2 1.6 -11.6331
319 1 48 28.8 0 -11.5085
288 2 49.6 27.2 1.6 -9.73025
290 3 1.6 30.4 1.6 -11.1826
321 2 0 32 0 -9.89221
292 1 4.8 30.4 1.6 -11.7548
323 3 3.2 32 0 -11.2812
294 1 8 30.4 1.6 -11.742
325 3 6.4 32 0 -11.3318
296 1 11.2 30.4 1.6 -11.5441
327 2 9.6 32 0 -9.76577
298 1 14.4 30.4 1.6 -11.6694
329 2 12.8 32 0 -9.689
300 1 17.6 30.4 1.6 -11.7059
331 3 16 32 0 -11.1265
302 2 20.8 30.4 1.6 -9.76517
333 2 19.2 32 0 -9.76294
304 3 24 30.4 1.6 -11.2175
335 1 22.4 32 0 -11.6975
337 1 25.6 32 0 -11.7502
306 1 27.2 30.4 1.6 -11.7485
339 2 28.8 32 0 -9.7615
308 1 30.4 30.4 1.6 -11.8115
341 3 32 32 0 -11.2026
310 1 33.6 30.4 1.6 -11.8415
343 3 35.2 32 0 -11.2423
312 1 36.8 30.4 1.6 -11.8122
345 3 38.4 32 0 -11.2042
314 1 40 30.4 1.6 -11.7806
347 3 41.6 32 0 -11.2957
316 1 43.2 30.4 1.6 -11.7908
349 2 44.8 32 0 -9.86762
318 2 46.4 30.4 1.6 -9.80235
351 2 48 32 0 -9.78618
320 2 49.6 30.4 1.6 -9.79557
322 3 1.6 33.6 1.6 -11.3881
353 2 0 35.2 0 -9.84483
324 2 4.8 33.6 1.6 -9.83685
355 1 3.2 35.2 0 -11.724
326 2 8 33.6 1.6 -9.80815
357 2 6.4 35.2 0 -9.78382
328 2 11.2 33.6 1.6 -9.82368
359 2 9.6 35.2 0 -9.78147
330 1 14.4 33.6 1.6 -11.7908
361 3 12.8 35.2 0 -11.2615
332 1 17.6 33.6 1.6 -11.7515
363 3 16 35.2 0 -11.1622
334 1 20.8 33.6 1.6 -11.7282
365 2 19.2 35.2 0 -9.76194
336 3 24 33.6 1.6 -11.23
367 1 22.4 35.2 0 -11.7453
369 1 25.6 35.2 0 -11.8119
338 2 27.2 33.6 1.6 -9.73571
371 1 28.8 35.2 0 -11.7318
340 1 30.4 33.6 1.6 -11.7312
373 2 32 35.2 0 -9.79071
342 1 33.6 33.6 1.6 -11.8085
375 3 35.2 35.2 0 -11.2051
344 1 36.8 33.6 1.6 -11.8134
377 3 38.4 35.2 0 -11.2392
346 1 40 33.6 1.6 -11.7397
379 2 41.6 35.2 0 -9.87592
348 2 43.2 33.6 1.6 -9.87987
381 1 44.8 35.2 0 -11.7953
350 3 46.4 33.6 1.6 -11.3068
383 2 48 35.2 0 -9.83796
352 3 49.6 33.6 1.6 -11.4118
354 3 1.6 36.8 1.6 -11.2019
385 1 0 38.4 0 -11.7572
356 3 4.8 36.8 1.6 -11.2031
387 1 3.2 38.4 0 -11.7177
358 2 8 36.8 1.6 -9.7591
389 1 6.4 38.4 0 -11.7452
360 3 11.2 36.8 1.6 -11.2676
391 1 9.6 38.4 0 -11.6447
362 1 14.4 36.8 1.6 -11.7744
393 2 12.8 38.4 0 -9.81803
364 1 17.6 36.8 1.6 -11.7658
395 2 16 38.4 0 -9.75209
366 2 20.8 36.8 1.6 -9.83546
397 2 19.2 38.4 0 -9.82849
368 3 24 36.8 1.6 -11.3247
399 1 22.4 38.4 0 -11.8053
401 1 25.6 38.4 0 -11.8116
370 3 27.2 36.8 1.6 -11.1663
403 1 28.8 38.4 0 -11.8188
372 3 30.4 36.8 1.6 -11.2075
405 2 32 38.4 0 -9.77473
374 1 33.6 36.8 1.6 -11.8154
407 3 35.2 38.4 0 -11.1257
376 1 36.8 36.8 1.6 -11.8333
409 3 38.4 38.4 0 -11.2394
378 2 40 36.8 1.6 -9.82536
411 2 41.6 38.4 0 -9.87796
380 2 43.2 36.8 1.6 -9.91087
413 1 44.8 38.4 0 -11.7852
382 2 46.4 36.8 1.6 -9.84851
415 1 48 38.4 0 -11.8186
384 3 49.6 36.8 1.6 -11.2993
386 3 1.6 40 1.6 -11.2045
417 1 0 41.6 0 -11.7806
388 3 4.8 40 1.6 -11.2429
419 1 3.2 41.6 0 -11.8139
390 3 8 40 1.6 -11.1243
421 1 6.4 41.6 0 -11.8137
392 2 11.2 40 1.6 -9.85287
423 1 9.6 41.6 0 -11.7122
394 1 14.4 40 1.6 -11.7495
425 3 12.8 41.6 0 -11.2395
396 1 17.6 40 1.6 -11.7347
427 2 16 41.6 0 -9.83542
398 2 20.8 40 1.6 -9.8048
429 2 19.2 41.6 0 -9.7141
400 2 24 40 1.6 -9.81767
431 1 22.4 41.6 0 -11.7
433 1 25.6 41.6 0 -11.7873
402 3 27.2 40 1.6 -11.2355
435 2 28.8 41.6 0 -9.78324
404 2 30.4 40 1.6 -9.86199
437 2 32 41.6 0 -9.79616
406 1 33.6 40 1.6 -11.7726
439 3 35.2 41.6 0 -11.2004
408 1 36.8 40 1.6 -11.7865
441 3 38.4 41.6 0 -11.2037
410 1 40 40 1.6 -11.7441
443 1 41.6 41.6 0 -11.64
412 2 43.2 40 1.6 -9.8816
445 1 44.8 41.6 0 -11.8117
414 3 46.4 40 1.6 -11.2016
447 1 48 41.6 0 -11.8415
416 3 49.6 40 1.6 -11.2426
418 3 1.6 43.2 1.6 -11.2045
449 1 0 44.8 0 -11.7806
420 3 4.8 43.2 1.6 -11.2045
451 1 3.2 44.8 0 -11.8189
422 3 8 43.2 1.6 -11.2361
453 1 6.4 44.8 0 -11.8161
424 2 11.2 43.2 1.6 -9.89993
455 1 9.6 44.8 0 -11.8202
426 1 14.4 43.2 1.6 -11.8843
457 2 12.8 44.8 0 -9.91224
428 1 17.6 43.2 1.6 -11.6959
459 3 16 44.8 0 -11.269
430 1 20.8 43.2 1.6 -11.5104
461 1 19.2 44.8 0 -11.5522
432 2 24 43.2 1.6 -9.67235
463 1 22.4 44.8 0 -11.5528
465 1 25.6 44.8 0 -11.7262
434 2 27.2 43.2 1.6 -9.77191
467 2 28.8 44.8 0 -9.79946
436 1 30.4 43.2 1.6 -11.6353
469 2 32 44.8 0 -9.80516
438 1 33.6 43.2 1.6 -11.6275
471 2 35.2 44.8 0 -9.86292
440 1 36.8 43.2 1.6 -11.743
473 3 38.4 44.8 0 -11.3786
442 1 40 43.2 1.6 -11.7094
475 1 41.6 44.8 0 -11.7997
444 3 43.2 43.2 1.6 -11.1959
477 1 44.8 44.8 0 -11.8415
446 3 46.4 43.2 1.6 -11.2045
479 1 48 44.8 0 -11.8417
448 3 49.6 43.2 1.6 -11.242
450 3 1.6 46.4 1.6 -11.2369
481 1 0 48 0 -11.8144
452 3 4.8 46.4 1.6 -11.2372
483 2 3.2 48 0 -9.78921
454 3 8 46.4 1.6 -11.3619
485 1 6.4 48 0 -11.7887
456 2 11.2 46.4 1.6 -9.9232
487 2 9.6 48 0 -9.84819
458 2 14.4 46.4 1.6 -9.82725
489 2 12.8 48 0 -9.75091
460 2 17.6 46.4 1.6 -9.78701
491 2 16 48 0 -9.83654
462 1 20.8 46.4 1.6 -11.5017
493 1 19.2 48 0 -11.5629
464 2 24 46.4 1.6 -9.72982
495 1 22.4 48 0 -11.6164
497 1 25.6 48 0 -11.7844
466 3 27.2 46.4 1.6 -11.2304
499 1 28.8 48 0 -11.8419
468 3 30.4 46.4 1.6 -11.2316
501 1 32 48 0 -11.8416
470 2 33.6 46.4 1.6 -9.78454
503 1 35.2 48 0 -11.8413
472 3 36.8 46.4 1.6 -11.324
505 1 38.4 48 0 -11.8775
474 3 40 46.4 1.6 -11.3302
507 1 41.6 48 0 -11.8408
476 3 43.2 46.4 1.6 -11.2753
509 1 44.8 48 0 -11.7808
478 3 46.4 46.4 1.6 -11.1648
511 1 48 48 0 -11.7808
480 3 49.6 46.4 1.6 -11.2429
482 3 1.6 49.6 1.6 -11.2374
484 3 4.8 49.6 1.6 -11.1978
486 3 8 49.6 1.6 -11.2532
488 1 11.2 49.6 1.6 -11.7196
490 1 14.4 49.6 1.6 -11.7
492 1 17.6 49.6 1.6 -11.7318
494 1 20.8 49.6 1.6 -11.6531
496 2 24 49.6 1.6 -9.85248
498 3 27.2 49.6 1.6 -11.3027
500 3 30.4 49.6 1.6 -11.2743
502 3 33.6 49.6 1.6 -11.2972
504 3 36.8 49.6 1.6 -11.3316
506 3 40 49.6 1.6 -11.2963
508 3 43.2 49.6 1.6 -11.2959
510 2 46.4 49.6 1.6 -9.74882
512 3 49.6 49.6 1.6 -11.1648
513 1 0 0 3.2 -11.8136
514 2 1.6 1.6 4.8 -9.87808
515 1 3.2 0 3.2 -11.7628
516 2 4.8 1.6 4.8 -9.78332
517 1 6.4 0 3.2 -11.7463
518 3 8 1.6 4.8 -11.1958
519 2 9.6 0 3.2 -9.81374
520 1 11.2 1.6 4.8 -11.6204
521 2 12.8 0 3.2 -9.63313
522 1 14.4 1.6 4.8 -11.5856
523 2 16 0 3.2 -9.75952
524 2 17.6 1.6 4.8 -9.82896
525 3 19.2 0 3.2 -11.2668
526 1 20.8 1.6 4.8 -11.8089
527 3 22.4 0 3.2 -11.2675
528 1 24 1.6 4.8 -11.6995
529 2 25.6 0 3.2 -9.81622
530 2 27.2 1.6 4.8 -9.78924
531 1 28.8 0 3.2 -11.8211
532 2 30.4 1.6 4.8 -9.7946
533 2 32 0 3.2 -9.83483
534 2 33.6 1.6 4.8 -9.84214
535 2 35.2 0 3.2 -9.91358
536 1 36.8 1.6 4.8 -11.8566
537 3 38.4 0 3.2 -11.3335
538 1 40 1.6 4.8 -11.8124
539 3 41.6 0 3.2 -11.3334
540 1 43.2 1.6 4.8 -11.7487
541 2 44.8 0 3.2 -9.83746
542 2 46.4 1.6 4.8 -9.85358
543 1 48 0 3.2 -11.7919
544 3 49.6 1.6 4.8 -11.3592
545 2 0 3.2 3.2 -9.81829
546 1 1.6 4.8 4.8 -11.7375
547 2 3.2 3.2 3.2 -9.86729
548 2 4.8 4.8 4.8 -9.79017
549 1 6.4 3.2 3.2 -11.7587
550 3 8 4.8 4.8 -11.2048
551 1 9.6 3.2 3.2 -11.7486
552 3 11.2 4.8 4.8 -11.2019
553 1 12.8 3.2 3.2 -11.6652
554 3 14.4 4.8 4.8 -11.2345
555 1 16 3.2 3.2 -11.7186
556 3 17.6 4.8 4.8 -11.3929
557 2 19.2 3.2 3.2 -9.84949
558 1 20.8 4.8 4.8 -11.7618
559 2 22.4 3.2 3.2 -9.70011
560 1 24 4.8 4.8 -11.6744
561 1 25.6 3.2 3.2 -11.6827
562 2 27.2 4.8 4.8 -9.73341
563 1 28.8 3.2 3.2 -11.6518
564 1 30.4 4.8 4.8 -11.5991
565 2 32 3.2 3.2 -9.8233
566 1 33.6 4.8 4.8 -11.7351
567 2 35.2 3.2 3.2 -9.84073
568 1 36.8 4.8 4.8 -11.758
569 2 38.4 3.2 3.2 -9.84038
570 1 40 4.8 4.8 -11.773
571 2 41.6 3.2 3.2 -9.75814
572 1 43.2 4.8 4.8 -11.6602
573 1 44.8 3.2 3.2 -11.6428
574 2 46.4 4.8 4.8 -9.80247
575 1 48 3.2 3.2 -11.8004
576 2 49.6 4.8 4.8 -9.84908
577 1 0 6.4 3.2 -11.7663
578 3 1.6 8 4.8 -11.2765
579 2 3.2 6.4 3.2 -9.7571
580 3 4.8 8 4.8 -11.2743
581 1 6.4 6.4 3.2 -11.8141
582 3 8 8 4.8 -11.242
583 1 9.6 6.4 3.2 -11.8681
584 3 11.2 8 4.8 -11.2417
585 1 12.8 6.4 3.2 -11.8411
586 3 14.4 8 4.8 -11.3021
587 1 16 6.4 3.2 -11.8411
588 2 17.6 8 4.8 -9.89063
589 2 19.2 6.4 3.2 -9.82274
590 1 20.8 8 4.8 -11.8089
591 2 22.4 6.4 3.2 -9.69233
592 1 24 8 4.8 -11.7434
593 2 25.6 6.4 3.2 -9.68379
594 2 27.2 8 4.8 -9.81283
595 1 28.8 6.4 3.2 -11.7298
596 2 30.4 8 4.8 -9.81519
597 2 32 6.4 3.2 -9.77513
598 2 33.6 8 4.8 -9.85923
599 2 35.2 6.4 3.2 -9.83965
600 2 36.8 8 4.8 -9.88744
601 3 38.4 6.4 3.2 -11.3127
602 3 40 8 4.8 -11.3491
603 2 41.6 6.4 3.2 -9.8302
604 3 43.2 8 4.8 -11.2954
605 1 44.8 6.4 3.2 -11.7432
606 3 46.4 8 4.8 -11.3318
607 1 48 6.4 3.2 -11.8117
608 3 49.6 8 4.8 -11.3353
609 1 0 9.6 3.2 -11.8413
610 3 1.6 11.2 4.8 -11.2036
611 1 3.2 9.6 3.2 -11.8681
612 3 4.8 11.2 4.8 -11.242
613 1 6.4 9.6 3.2 -11.8122
614 3 8 11.2 4.8 -11.2033
615 1 9.6 9.6 3.2 -11.8122
616 3 11.2 11.2 4.8 -11.2417
617 1 12.8 9.6 3.2 -11.8415
618 3 14.4 11.2 4.8 -11.2746
619 1 16 9.6 3.2 -11.8188
620 2 17.6 11.2 4.8 -9.80909
621 2 19.2 9.6 3.2 -9.8459
622 2 20.8 11.2 4.8 -9.9332
623 3 22.4 9.6 3.2 -11.3228
624 3 24 11.2 4.8 -11.4065
625 1 25.6 9.6 3.2 -11.7173
626 2 27.2 11.2 4.8 -9.78483
627 1 28.8 9.6 3.2 -11.7248
628 3 30.4 11.2 4.8 -11.2199
629 1 32 9.6 3.2 -11.7637
630 2 33.6 11.2 4.8 -9.82239
631 1 35.2 9.6 3.2 -11.7646
632 3 36.8 11.2 4.8 -11.2023
633 1 38.4 9.6 3.2 -11.8272
634 3 40 11.2 4.8 -11.2423
635 1 41.6 9.6 3.2 -11.8418
636 3 43.2 11.2 4.8 -11.2423
637 1 44.8 9.6 3.2 -11.8119
638 3 46.4 11.2 4.8 -11.2039
639 1 48 9.6 3.2 -11.8413
640 3 49.6 11.2 4.8 -11.2039
641 1 0 12.8 3.2 -11.8124
642 2 1.6 14.4 4.8 -9.70671
643 1 3.2 12.8 3.2 -11.8124
644 3 4.8 14.4 4.8 -11.2042
645 1 6.4 12.8 3.2 -11.8124
646 3 8 14.4 4.8 -11.2036
647 1 9.6 12.8 3.2 -11.8124
648 3 11.2 14.4 4.8 -11.242
649 1 12.8 12.8 3.2 -11.8417
650 3 14.4 14.4 4.8 -11.242
651 1 16 12.8 3.2 -11.8117
652 3 17.6 14.4 4.8 -11.2048
653 1 19.2 12.8 3.2 -11.8522
654 3 20.8 14.4 4.8 -11.4384
655 3 22.4 12.8 3.2 -11.4473
656 3 24 14.4 4.8 -11.4255
657 1 25.6 12.8 3.2 -11.7954
658 2 27.2 14.4 4.8 -9.78933
659 1 28.8 12.8 3.2 -11.6981
660 2 30.4 14.4 4.8 -9.81129
661 2 32 12.8 3.2 -9.75195
662 2 33.6 14.4 4.8 -9.75449
663 1 35.2 12.8 3.2 -11.7293
664 3 36.8 14.4 4.8 -11.1651
665 1 38.4 12.8 3.2 -11.8124
666 3 40 14.4 4.8 -11.2417
667 1 41.6 12.8 3.2 -11.8417
668 3 43.2 14.4 4.8 -11.242
669 1 44.8 12.8 3.2 -11.8417
670 3 46.4 14.4 4.8 -11.2039
671 1 48 12.8 3.2 -11.8417
672 3 49.6 14.4 4.8 -11.2045
673 1 0 16 3.2 -11.7564
674 2 1.6 17.6 4.8 -9.7808
675 1 3.2 16 3.2 -11.7568
676 3 4.8 17.6 4.8 -11.1612
677 1 6.4 16 3.2 -11.7844
678 2 8 17.6 4.8 -9.73554
679 1 9.6 16 3.2 -11.7846
680 3 11.2 17.6 4.8 -11.1645
681 1 12.8 16 3.2 -11.7808
682 3 14.4 17.6 4.8 -11.1645
683 1 16 16 3.2 -11.8144
684 3 17.6 17.6 4.8 -11.2042
685 1 19.2 16 3.2 -11.8367
686 3 20.8 17.6 4.8 -11.3332
687 2 22.4 16 3.2 -9.94174
688 1 24 17.6 4.8 -11.7479
689 2 25.6 16 3.2 -9.87891
690 1 27.2 17.6 4.8 -11.7141
691 2 28.8 16 3.2 -9.80419
692 2 30.4 17.6 4.8 -9.84944
693 2 32 16 3.2 -9.90632
694 2 33.6 17.6 4.8 -9.80564
695 1 35.2 16 3.2 -11.7588
696 3 36.8 17.6 4.8 -11.1997
697 1 38.4 16 3.2 -11.8122
698 3 40 17.6 4.8 -11.2051
699 1 41.6 16 3.2 -11.8417
700 3 43.2 17.6 4.8 -11.1238
701 1 44.8 16 3.2 -11.7808
702 2 46.4 17.6 4.8 -9.74922
703 1 48 16 3.2 -11.7878
704 3 49.6 17.6 4.8 -11.2643
705 2 0 19.2 3.2 -9.8455
706 2 1.6 20.8 4.8 -9.81264
707 2 3.2 19.2 3.2 -9.8204
708 2 4.8 20.8 4.8 -9.81888
709 1 6.4 19.2 3.2 -11.7656
710 3 8 20.8 4.8 -11.3022
711 1 9.6 19.2 3.2 -11.768
712 3 11.2 20.8 4.8 -11.4043
713 1 12.8 19.2 3.2 -11.7247
714 2 14.4 20.8 4.8 -9.77578
715 1 16 19.2 3.2 -11.7297
716 3 17.6 20.8 4.8 -11.1657
717 1 19.2 19.2 3.2 -11.7769
718 3 20.8 20.8 4.8 -11.3751
719 2 22.4 19.2 3.2 -9.91062
720 1 24 20.8 4.8 -11.7951
721 2 25.6 19.2 3.2 -9.75474
722 1 27.2 20.8 4.8 -11.7496
723 2 28.8 19.2 3.2 -9.75729
724 1 30.4 20.8 4.8 -11.8057
725 3 32 19.2 3.2 -11.314
726 1 33.6 20.8 4.8 -11.7666
727 2 35.2 19.2 3.2 -9.79707
728 2 36.8 20.8 4.8 -9.87058
729 1 38.4 19.2 3.2 -11.7888
730 2 40 20.8 4.8 -9.82603
731 1 41.6 19.2 3.2 -11.7586
732 2 43.2 20.8 4.8 -9.75565
733 1 44.8 19.2 3.2 -11.6966
734 2 46.4 20.8 4.8 -9.76517
735 2 48 19.2 3.2 -9.78409
736 3 49.6 20.8 4.8 -11.2243
737 2 0 22.4 3.2 -9.78299
738 2 1.6 24 4.8 -9.80681
739 2 3.2 22.4 3.2 -9.76454
740 1 4.8 24 4.8 -11.6519
741 2 6.4 22.4 3.2 -9.74665
742 1 8 24 4.8 -11.7366
743 3 9.6 22.4 3.2 -11.38
744 3 11.2 24 4.8 -11.4085
745 2 12.8 22.4 3.2 -9.81735
746 3 14.4 24 4.8 -11.3269
747 1 16 22.4 3.2 -11.6857
748 3 17.6 24 4.8 -11.1216
749 1 19.2 22.4 3.2 -11.644
750 2 20.8 24 4.8 -9.79854
751 3 22.4 22.4 3.2 -11.253
752 1 24 24 4.8 -11.8133
753 3 25.6 22.4 3.2 -11.2048
754 1 27.2 24 4.8 -11.8417
755 3 28.8 22.4 3.2 -11.2051
756 1 30.4 24 4.8 -11.8121
757 3 32 22.4 3.2 -11.2048
758 1 33.6 24 4.8 -11.812
759 3 35.2 22.4 3.2 -11.2668
760 1 36.8 24 4.8 -11.8127
761 2 38.4 22.4 3.2 -9.83812
762 1 40 24 4.8 -11.7846
763 2 41.6 22.4 3.2 -9.78836
764 1 43.2 24 4.8 -11.7564
765 1 44.8 22.4 3.2 -11.6469
766 2 46.4 24 4.8 -9.79834
767 1 48 22.4 3.2 -11.7165
768 2 49.6 24 4.8 -9.84081
769 2 0 25.6 3.2 -9.89141
771 2 3.2 25.6 3.2 -9.7638
773 2 6.4 25.6 3.2 -9.65688
775 2 9.6 25.6 3.2 -9.77823
777 2 12.8 25.6 3.2 -9.83684
779 2 16 25.6 3.2 -9.77619
781 1 19.2 25.6 3.2 -11.61
783 2 22.4 25.6 3.2 -9.82247
785 3 25.6 25.6 3.2 -11.3066
787 3 28.8 25.6 3.2 -11.2414
789 3 32 25.6 3.2 -11.2417
791 3 35.2 25.6 3.2 -11.2423
793 3 38.4 25.6 3.2 -11.1642
795 3 41.6 25.6 3.2 -11.2051
797 3 44.8 25.6 3.2 -11.1965
799 2 48 25.6 3.2 -9.79073
770 2 1.6 27.2 4.8 -9.7888
801 1 0 28.8 3.2 -11.7403
772 1 4.8 27.2 4.8 -11.6823
803 1 3.2 28.8 3.2 -11.7091
774 1 8 27.2 4.8 -11.7106
805 3 6.4 28.8 3.2 -11.218
776 2 11.2 27.2 4.8 -9.81333
807 2 9.6 28.8 3.2 -9.69047
778 2 14.4 27.2 4.8 -9.80866
809 1 12.8 28.8 3.2 -11.6016
780 2 17.6 27.2 4.8 -9.76907
811 2 16 28.8 3.2 -9.73352
782 2 20.8 27.2 4.8 -9.78619
813 1 19.2 28.8 3.2 -11.6466
784 1 24 27.2 4.8 -11.7791
815 1 22.4 28.8 3.2 -11.7164
817 3 25.6 28.8 3.2 -11.2191
786 1 27.2 27.2 4.8 -11.8414
819 3 28.8 28.8 3.2 -11.2429
788 1 30.4 27.2 4.8 -11.8417
821 3 32 28.8 3.2 -11.2417
790 1 33.6 27.2 4.8 -11.8415
823 3 35.2 28.8 3.2 -11.242
792 1 36.8 27.2 4.8 -11.8124
825 3 38.4 28.8 3.2 -11.2042
794 1 40 27.2 4.8 -11.8124
827 3 41.6 28.8 3.2 -11.2042
796 1 43.2 27.2 4.8 -11.8413
829 3 44.8 28.8 3.2 -11.267
798 1 46.4 27.2 4.8 -11.7816
831 2 48 28.8 3.2 -9.75413
800 1 49.6 27.2 4.8 -11.7046
802 3 1.6 30.4 4.8 -11.2683
833 1 0 32 3.2 -11.841
804 2 4.8 30.4 4.8 -9.76754
835 1 3.2 32 3.2 -11.7726
806 3 8 30.4 4.8 -11.2698
837 2 6.4 32 3.2 -9.81424
808 2 11.2 30.4 4.8 -9.79544
839 1 9.6 32 3.2 -11.7087
810 2 14.4 30.4 4.8 -9.72305
841 2 12.8 32 3.2 -9.74391
812 1 17.6 30.4 4.8 -11.672
843 3 16 32 3.2 -11.2313
814 2 20.8 30.4 4.8 -9.76353
845 3 19.2 32 3.2 -11.1969
816 1 24 30.4 4.8 -11.7078
847 2 22.4 32 3.2 -9.81363
849 1 25.6 32 3.2 -11.6885
818 1 27.2 30.4 4.8 -11.7443
851 3 28.8 32 3.2 -11.1849
820 1 30.4 30.4 4.8 -11.8134
853 3 32 32 3.2 -11.303
822 1 33.6 30.4 4.8 -11.846
855 3 35.2 32 3.2 -11.2995
824 1 36.8 30.4 4.8 -11.7872
857 2 38.4 32 3.2 -9.78149
826 1 40 30.4 4.8 -11.7875
859 2 41.6 32 3.2 -9.7899
828 1 43.2 30.4 4.8 -11.8181
861 2 44.8 32 3.2 -9.89906
830 2 46.4 30.4 4.8 -9.81641
863 1 48 32 3.2 -11.8193
832 3 49.6 30.4 4.8 -11.2276
834 3 1.6 33.6 4.8 -11.2429
865 1 0 35.2 3.2 -11.8677
836 3 4.8 33.6 4.8 -11.2003
867 1 3.2 35.2 3.2 -11.8113
838 3 8 33.6 4.8 -11.2761
869 1 6.4 35.2 3.2 -11.8191
840 3 11.2 33.6 4.8 -11.227
871 1 9.6 35.2 3.2 -11.8132
842 2 14.4 33.6 4.8 -9.85481
873 2 12.8 35.2 3.2 -9.8809
844 1 17.6 33.6 4.8 -11.7576
875 2 16 35.2 3.2 -9.80926
846 1 20.8 33.6 4.8 -11.7862
877 3 19.2 35.2 3.2 -11.1586
848 2 24 33.6 4.8 -9.84023
879 3 22.4 35.2 3.2 -11.3314
881 1 25.6 35.2 3.2 -11.767
850 3 27.2 33.6 4.8 -11.1814
883 1 28.8 35.2 3.2 -11.7185
852 2 30.4 33.6 4.8 -9.82657
885 2 32 35.2 3.2 -9.88243
854 2 33.6 33.6 4.8 -9.90542
887 3 35.2 35.2 3.2 -11.342
856 2 36.8 33.6 4.8 -9.86963
889 2 38.4 35.2 3.2 -9.84772
858 2 40 33.6 4.8 -9.81294
891 1 41.6 35.2 3.2 -11.7555
860 2 43.2 33.6 4.8 -9.86234
893 2 44.8 35.2 3.2 -9.80658
862 2 46.4 33.6 4.8 -9.80856
895 1 48 35.2 3.2 -11.8141
864 3 49.6 33.6 4.8 -11.1651
866 3 1.6 36.8 4.8 -11.2414
897 1 0 38.4 3.2 -11.8415
868 3 4.8 36.8 4.8 -11.2423
899 1 3.2 38.4 3.2 -11.8417
870 3 8 36.8 4.8 -11.2042
901 1 6.4 38.4 3.2 -11.8122
872 3 11.2 36.8 4.8 -11.3619
903 1 9.6 38.4 3.2 -11.7841
874 2 14.4 36.8 4.8 -9.85839
905 2 12.8 38.4 3.2 -9.89769
876 1 17.6 36.8 4.8 -11.7554
907 3 16 38.4 3.2 -11.1583
878 1 20.8 36.8 4.8 -11.8073
909 2 19.2 38.4 3.2 -9.80639
880 2 24 36.8 4.8 -9.78729
911 3 22.4 38.4 3.2 -11.3029
913 1 25.6 38.4 3.2 -11.7568
882 2 27.2 36.8 4.8 -9.69185
915 1 28.8 38.4 3.2 -11.7672
884 2 30.4 36.8 4.8 -9.82374
917 3 32 38.4 3.2 -11.3613
886 3 33.6 36.8 4.8 -11.3755
919 2 35.2 38.4 3.2 -9.88943
888 3 36.8 36.8 4.8 -11.3498
921 2 38.4 38.4 3.2 -9.91823
890 3 40 36.8 4.8 -11.3214
923 3 41.6 38.4 3.2 -11.3561
892 2 43.2 36.8 4.8 -9.85655
925 2 44.8 38.4 3.2 -9.83939
894 2 46.4 36.8 4.8 -9.72269
927 1 48 38.4 3.2 -11.7873
896 3 49.6 36.8 4.8 -11.2051
898 3 1.6 40 4.8 -11.2423
929 1 0 41.6 3.2 -11.8412
900 3 4.8 40 4.8 -11.2039
931 1 3.2 41.6 3.2 -11.8122
902 3 8 40 4.8 -11.1651
933 1 6.4 41.6 3.2 -11.8122
904 2 11.2 40 4.8 -9.81629
935 1 9.6 41.6 3.2 -11.8294
906 1 14.4 40 4.8 -11.8378
937 3 12.8 41.6 3.2 -11.3318
908 1 17.6 40 4.8 -11.7799
939 3 16 41.6 3.2 -11.2649
910 1 20.8 40 4.8 -11.7875
941 2 19.2 41.6 3.2 -9.6916
912 1 24 40 4.8 -11.7668
943 2 22.4 41.6 3.2 -9.75982
945 2 25.6 41.6 3.2 -9.75131
914 2 27.2 40 4.8 -9.78587
947 1 28.8 41.6 3.2 -11.7301
916 3 30.4 40 4.8 -11.2904
949 2 32 41.6 3.2 -9.79471
918 3 33.6 40 4.8 -11.3814
951 2 35.2 41.6 3.2 -9.80185
920 2 36.8 40 4.8 -9.85994
953 3 38.4 41.6 3.2 -11.1882
922 2 40 40 4.8 -9.8249
955 2 41.6 41.6 3.2 -9.80653
924 3 43.2 40 4.8 -11.2821
957 1 44.8 41.6 3.2 -11.7855
926 2 46.4 40 4.8 -9.82658
959 1 48 41.6 3.2 -11.8284
928 3 49.6 40 4.8 -11.2726
930 3 1.6 43.2 4.8 -11.2655
961 1 0 44.8 3.2 -11.8419
932 2 4.8 43.2 4.8 -9.74935
963 1 3.2 44.8 3.2 -11.7878
934 3 8 43.2 4.8 -11.1956
965 1 6.4 44.8 3.2 -11.7786
936 3 11.2 43.2 4.8 -11.4125
967 2 9.6 44.8 3.2 -9.8376
938 3 14.4 43.2 4.8 -11.3362
969 2 12.8 44.8 3.2 -9.97844
940 1 17.6 43.2 4.8 -11.8144
971 3 16 44.8 3.2 -11.3909
942 1 20.8 43.2 4.8 -11.7179
973 2 19.2 44.8 3.2 -9.65567
944 1 24 43.2 4.8 -11.6998
975 2 22.4 44.8 3.2 -9.63901
977 1 25.6 44.8 3.2 -11.6558
946 2 27.2 43.2 4.8 -9.75563
979 1 28.8 44.8 3.2 -11.6874
948 3 30.4 43.2 4.8 -11.161
981 1 32 44.8 3.2 -11.696
950 3 33.6 43.2 4.8 -11.2323
983 1 35.2 44.8 3.2 -11.6996
952 2 36.8 43.2 4.8 -9.84535
985 2 38.4 44.8 3.2 -9.89508
954 1 40 43.2 4.8 -11.6795
987 2 41.6 44.8 3.2 -9.75954
956 2 43.2 43.2 4.8 -9.72891
989 1 44.8 44.8 3.2 -11.75
958 2 46.4 43.2 4.8 -9.74822
991 1 48 44.8 3.2 -11.7801
960 3 49.6 43.2 4.8 -11.3709
962 2 1.6 46.4 4.8 -9.78528
993 1 0 48 3.2 -11.7872
964 2 4.8 46.4 4.8 -9.65932
995 1 3.2 48 3.2 -11.74
966 2 8 46.4 4.8 -9.7781
997 1 6.4 48 3.2 -11.7493
968 2 11.2 46.4 4.8 -9.82964
999 2 9.6 48 3.2 -9.83696
970 1 14.4 46.4 4.8 -11.8316
1001 2 12.8 48 3.2 -9.78071
972 1 17.6 46.4 4.8 -11.8108
1003 3 16 48 3.2 -11.2209
974 1 20.8 46.4 4.8 -11.7806
1005 3 19.2 48 3.2 -11.1651
976 1 24 46.4 4.8 -11.7264
1007 3 22.4 48 3.2 -11.1971
1009 2 25.6 48 3.2 -9.84357
978 2 27.2 46.4 4.8 -9.83214
1011 1 28.8 48 3.2 -11.8181
980 3 30.4 46.4 4.8 -11.2394
1013 1 32 48 3.2 -11.8113
982 3 33.6 46.4 4.8 -11.2057
1015 1 35.2 48 3.2 -11.8105
984 3 36.8 46.4 4.8 -11.2592
1017 1 38.4 48 3.2 -11.7571
986 2 40 46.4 4.8 -9.73832
1019 1 41.6 48 3.2 -11.7759
988 2 43.2 46.4 4.8 -9.79599
1021 1 44.8 48 3.2 -11.7623
990 2 46.4 46.4 4.8 -9.75224
1023 1 48 48 3.2 -11.7576
992 3 49.6 46.4 4.8 -11.2268
994 2 1.6 49.6 4.8 -9.73133
996 2 4.8 49.6 4.8 -9.6596
998 2 8 49.6 4.8 -9.78839
1000 1 11.2 49.6 4.8 -11.6496
1002 1 14.4 49.6 4.8 -11.6636
1004 1 17.6 49.6 4.8 -11.8142
1006 1 20.8 49.6 4.8 -11.8411
1008 1 24 49.6 4.8 -11.8181
1010 2 27.2 49.6 4.8 -9.85424
1012 2 30.4 49.6 4.8 -9.87301
1014 3 33.6 49.6 4.8 -11.2901
1016 2 36.8 49.6 4.8 -9.82682
1018 1 40 49.6 4.8 -11.6848
1020 2 43.2 49.6 4.8 -9.83325
1022 2 46.4 49.6 4.8 -9.82867
1024 2 49.6 49.6 4.8 -9.84046
1025 2 0 0 6.4 -9.83299
1026 1 1.6 1.6 8 -11.79
1027 2 3.2 0 6.4 -9.75523
1028 2 4.8 1.6 8 -9.81239
1029 1 6.4 0 6.4 -11.7568
1030 3 8 1.6 8 -11.2726
1031 2 9.6 0 6.4 -9.77357
1032 3 11.2 1.6 8 -11.2256
1033 2 12.8 0 6.4 -9.77848
1034 2 14.4 1.6 8 -9.75907
1035 2 16 0 6.4 -9.78726
1036 2 17.6 1.6 8 -9.86017
1037 3 19.2 0 6.4 -11.3934
1038 1 20.8 1.6 8 -11.8414
1039 3 22.4 0 6.4 -11.2045
1040 1 24 1.6 8 -11.8141
1041 2 25.6 0 6.4 -9.83777
1042 2 27.2 1.6 8 -9.83345
1043 2 28.8 0 6.4 -9.82065
1044 2 30.4 1.6 8 -9.81915
1045 1 32 0 6.4 -11.7313
1046 1 33.6 1.6 8 -11.6664
1047 2 35.2 0 6.4 -9.85049
1048 3 36.8 1.6 8 -11.2796
1049 3 38.4 0 6.4 -11.2895
1050 1 40 1.6 8 -11.8538
1051 3 41.6 0 6.4 -11.2761
1052 1 43.2 1.6 8 -11.7806
1053 3 44.8 0 6.4 -11.293
1054 1 46.4 1.6 8 -11.7847
1055 2 48 0 6.4 -9.85827
1056 1 49.6 1.6 8 -11.8273
1057 3 0 3.2 6.4 -11.3785
1058 2 1.6 4.8 8 -9.84309
1059 2 3.2 3.2 6.4 -9.85895
1060 3 4.8 4.8 8 -11.2664
1061 1 6.4 3.2 6.4 -11.7872
1062 3 8 4.8 8 -11.242
1063 1 9.6 3.2 6.4 -11.8162
1064 3 11.2 4.8 8 -11.2748
1065 2 12.8 3.2 6.4 -9.72118
1066 2 14.4 4.8 8 -9.84852
1067 1 16 3.2 6.4 -11.7451
1068 2 17.6 4.8 8 -9.87995
1069 3 19.2 3.2 6.4 -11.3492
1070 1 20.8 4.8 8 -11.8415
1071 3 22.4 3.2 6.4 -11.166
1072 1 24 4.8 8 -11.7875
1073 2 25.6 3.2 6.4 -9.75311
1074 2 27.2 4.8 8 -9.83587
1075 1 28.8 3.2 6.4 -11.7109
1076 2 30.4 4.8 8 -9.79252
1077 2 32 3.2 6.4 -9.76932
1078 1 33.6 4.8 8 -11.7551
1079 3 35.2 3.2 6.4 -11.2291
1080 1 36.8 4.8 8 -11.7673
1081 3 38.4 3.2 6.4 -11.2646
1082 1 40 4.8 8 -11.7868
1083 3 41.6 3.2 6.4 -11.1243
1084 1 43.2 4.8 8 -11.7798
1085 2 44.8 3.2 6.4 -9.75965
1086 1 46.4 4.8 8 -11.8109
1087 3 48 3.2 6.4 -11.3148
1088 1 49.6 4.8 8 -11.8621
1089 2 0 6.4 6.4 -9.84788
1090 3 1.6 8 8 -11.3007
1091 1 3.2 6.4 6.4 -11.7938
1092 3 4.8 8 8 -11.2423
1093 1 6.4 6.4 6.4 -11.812
1094 3 8 8 8 -11.2414
1095 1 9.6 6.4 6.4 -11.8415
1096 3 11.2 8 8 -11.2039
1097 1 12.8 6.4 6.4 -11.8421
1098 2 14.4 8 8 -9.83755
1099 2 16 6.4 6.4 -9.86895
1100 1 17.6 8 8 -11.8194
1101 3 19.2 6.4 6.4 -11.3862
1102 1 20.8 8 8 -11.811
1103 3 22.4 6.4 6.4 -11.1651