ITEM: TIMESTEP
0
ITEM: NUMBER OF ATOMS
8192
ITEM: BOX BOUNDS pp pp pp
0.0000000000000000e+00 5.1200000000000003e+01
0.0000000000000000e+00 5.1200000000000003e+01
0.0000000000000000e+00 5.1200000000000003e+01
ITEM: ATOMS id type x y z c_eng
1 1 0 0 0 -11.6617
2 3 1.6 1.6 1.6 -11.2766
3 1 3.2 0 0 -11.6497
4 2 4.8 1.6 1.6 -9.80119
5 1 6.4 0 0 -11.6878
6 2 8 1.6 1.6 -9.70889
7 3 9.6 0 0 -11.2392
8 2 11.2 1.6 1.6 -9.78415
9 1 12.8 0 0 -11.6632
10 3 14.4 1.6 1.6 -11.297
11 3 16 0 0 -11.3108
12 2 17.6 1.6 1.6 -9.83036
13 3 19.2 0 0 -11.253
14 1 20.8 1.6 1.6 -11.6924
15 1 22.4 0 0 -11.6238
16 2 24 1.6 1.6 -9.75129
17 1 25.6 0 0 -11.7566
18 3 27.2 1.6 1.6 -11.1157
19 1 28.8 0 0 -11.813
20 2 30.4 1.6 1.6 -9.86165
21 1 32 0 0 -11.7798
22 3 33.6 1.6 1.6 -11.2269
23 1 35.2 0 0 -11.7803
24 2 36.8 1.6 1.6 -9.81077
25 1 38.4 0 0 -11.8131
26 3 40 1.6 1.6 -11.2256
27 1 41.6 0 0 -11.8414
28 3 43.2 1.6 1.6 -11.0858
29 1 44.8 0 0 -11.8415
30 3 46.4 1.6 1.6 -11.2598
31 1 48 0 0 -11.8671
32 3 49.6 1.6 1.6 -11.3814
33 1 0 3.2 0 -11.7284
34 2 1.6 4.8 1.6 -9.73138
35 2 3.2 3.2 0 -9.80093
36 3 4.8 4.8 1.6 -11.1867
37 1 6.4 3.2 0 -11.5754
38 2 8 4.8 1.6 -9.56166
39 1 9.6 3.2 0 -11.6372
40 3 11.2 4.8 1.6 -11.2004
41 1 12.8 3.2 0 -11.8106
42 3 14.4 4.8 1.6 -11.2753
43 1 16 3.2 0 -11.8596
44 2 17.6 4.8 1.6 -9.85163
45 2 19.2 3.2 0 -9.78321
46 1 20.8 4.8 1.6 -11.7097
47 1 22.4 3.2 0 -11.542
48 1 24 4.8 1.6 -11.6127
49 1 25.6 3.2 0 -11.6816
50 2 27.2 4.8 1.6 -9.75206
51 1 28.8 3.2 0 -11.7195
52 3 30.4 4.8 1.6 -11.365
53 1 32 3.2 0 -11.8515
54 3 33.6 4.8 1.6 -11.3989
55 1 35.2 3.2 0 -11.82
56 2 36.8 4.8 1.6 -9.78641
57 2 38.4 3.2 0 -9.84085
58 1 40 4.8 1.6 -11.7116
59 1 41.6 3.2 0 -11.6586
60 1 43.2 4.8 1.6 -11.4814
61 1 44.8 3.2 0 -11.6419
62 2 46.4 4.8 1.6 -9.79233
63 2 48 3.2 0 -9.87118
64 2 49.6 4.8 1.6 -9.79727
65 1 0 6.4 0 -11.4983
66 3 1.6 8 1.6 -11.1212
67 1 3.2 6.4 0 -11.7033
68 2 4.8 8 1.6 -9.66458
69 1 6.4 6.4 0 -11.4906
70 1 8 8 1.6 -11.5387
71 1 9.6 6.4 0 -11.6294
72 3 11.2 8 1.6 -11.3268
73 1 12.8 6.4 0 -11.8674
74 3 14.4 8 1.6 -11.1608
75 2 16 6.4 0 -9.79661
76 1 17.6 8 1.6 -11.6503
77 3 19.2 6.4 0 -11.3167
78 1 20.8 8 1.6 -11.8327
79 3 22.4 6.4 0 -11.1885
80 1 24 8 1.6 -11.634
81 3 25.6 6.4 0 -11.1626
82 1 27.2 8 1.6 -11.7319
83 2 28.8 6.4 0 -9.88076
84 2 30.4 8 1.6 -9.87959
85 1 32 6.4 0 -11.8551
86 2 33.6 8 1.6 -9.78017
87 1 35.2 6.4 0 -11.7071
88 1 36.8 8 1.6 -11.6256
89 1 38.4 6.4 0 -11.7686
90 3 40 8 1.6 -11.3251
91 2 41.6 6.4 0 -9.76684
92 3 43.2 8 1.6 -11.2603
93 2 44.8 6.4 0 -9.78208
94 2 46.4 8 1.6 -9.87882
95 2 48 6.4 0 -9.85092
96 2 49.6 8 1.6 -9.78718
97 1 0 9.6 0 -11.7712
98 2 1.6 11.2 1.6 -9.72263
99 2 3.2 9.6 0 -9.68099
100 1 4.8 11.2 1.6 -11.4431
101 2 6.4 9.6 0 -9.58279
102 1 8 11.2 1.6 -11.6095
103 2 9.6 9.6 0 -9.87423
104 3 11.2 11.2 1.6 -11.3628
105 1 12.8 9.6 0 -11.8367
106 3 14.4 11.2 1.6 -11.2051
107 1 16 9.6 0 -11.7319
108 3 17.6 11.2 1.6 -11.2327
109 2 19.2 9.6 0 -9.78961
110 3 20.8 11.2 1.6 -11.2801
111 2 22.4 9.6 0 -9.7956
112 2 24 11.2 1.6 -9.73375
113 2 25.6 9.6 0 -9.76817
114 3 27.2 11.2 1.6 -11.2397
115 2 28.8 9.6 0 -9.8599
116 2 30.4 11.2 1.6 -9.97562
117 1 32 9.6 0 -11.8167
118 3 33.6 11.2 1.6 -11.3512
119 1 35.2 9.6 0 -11.7223
120 3 36.8 11.2 1.6 -11.1225
121 2 38.4 9.6 0 -9.77402
122 3 40 11.2 1.6 -11.2372
123 1 41.6 9.6 0 -11.8657
124 3 43.2 11.2 1.6 -11.2054
125 1 44.8 9.6 0 -11.8289
126 2 46.4 11.2 1.6 -9.75283
127 3 48 9.6 0 -11.1915
128 3 49.6 11.2 1.6 -11.235
129 1 0 12.8 0 -11.7683
130 3 1.6 14.4 1.6 -11.1618
131 1 3.2 12.8 0 -11.6483
132 3 4.8 14.4 1.6 -11.126
133 2 6.4 12.8 0 -9.75104
134 2 8 14.4 1.6 -9.75921
135 2 9.6 12.8 0 -9.81946
136 3 11.2 14.4 1.6 -11.2315
137 1 12.8 12.8 0 -11.833
138 3 14.4 14.4 1.6 -11.303
139 1 16 12.8 0 -11.7497
140 3 17.6 14.4 1.6 -11.264
141 1 19.2 12.8 0 -11.7142
142 3 20.8 14.4 1.6 -11.3242
143 1 22.4 12.8 0 -11.6354
144 2 24 14.4 1.6 -9.82569
145 1 25.6 12.8 0 -11.6576
146 2 27.2 14.4 1.6 -9.84476
147 1 28.8 12.8 0 -11.7252
148 1 30.4 14.4 1.6 -11.657
149 2 32 12.8 0 -9.7921
150 3 33.6 14.4 1.6 -11.3477
151 1 35.2 12.8 0 -11.7697
152 3 36.8 14.4 1.6 -11.1181
153 1 38.4 12.8 0 -11.7549
154 3 40 14.4 1.6 -11.2065
155 1 41.6 12.8 0 -11.8165
156 3 43.2 14.4 1.6 -11.2995
157 1 44.8 12.8 0 -11.8005
158 3 46.4 14.4 1.6 -11.4006
159 1 48 12.8 0 -11.8377
160 3 49.6 14.4 1.6 -11.3866
161 3 0 16 0 -11.2358
162 2 1.6 17.6 1.6 -9.80851
163 1 3.2 16 0 -11.7426
164 2 4.8 17.6 1.6 -9.75173
165 1 6.4 16 0 -11.7768
166 2 8 17.6 1.6 -9.75341
167 1 9.6 16 0 -11.7505
168 1 11.2 17.6 1.6 -11.6376
169 2 12.8 16 0 -9.7595
170 2 14.4 17.6 1.6 -9.81823
171 2 16 16 0 -9.83161
172 2 17.6 17.6 1.6 -9.86146
173 2 19.2 16 0 -9.83763
174 3 20.8 17.6 1.6 -11.4508
175 2 22.4 16 0 -9.94958
176 2 24 17.6 1.6 -9.91245
177 2 25.6 16 0 -9.8821
178 3 27.2 17.6 1.6 -11.2878
179 1 28.8 16 0 -11.7105
180 2 30.4 17.6 1.6 -9.88853
181 1 32 16 0 -11.7685
182 2 33.6 17.6 1.6 -9.84035
183 1 35.2 16 0 -11.593
184 2 36.8 17.6 1.6 -9.68993
185 1 38.4 16 0 -11.6185
186 3 40 17.6 1.6 -11.0414
187 1 41.6 16 0 -11.7267
188 2 43.2 17.6 1.6 -9.71091
189 2 44.8 16 0 -9.83255
190 2 46.4 17.6 1.6 -9.85124
191 3 48 16 0 -11.4133
192 1 49.6 17.6 1.6 -11.7958
193 3 0 19.2 0 -11.2016
194 1 1.6 20.8 1.6 -11.8124
195 2 3.2 19.2 0 -9.85699
196 2 4.8 20.8 1.6 -9.86844
197 1 6.4 19.2 0 -11.8228
198 3 8 20.8 1.6 -11.3483
199 3 9.6 19.2 0 -11.1889
200 1 11.2 20.8 1.6 -11.7528
201 2 12.8 19.2 0 -9.80983
202 2 14.4 20.8 1.6 -9.8397
203 2 16 19.2 0 -9.83654
204 3 17.6 20.8 1.6 -11.1193
205 1 19.2 19.2 0 -11.7856
206 2 20.8 20.8 1.6 -9.78219
207 2 22.4 19.2 0 -9.89429
208 1 24 20.8 1.6 -11.718
209 2 25.6 19.2 0 -9.88379
210 1 27.2 20.8 1.6 -11.7509
211 2 28.8 19.2 0 -9.82165
212 2 30.4 20.8 1.6 -9.86223
213 3 32 19.2 0 -11.3919
214 1 33.6 20.8 1.6 -11.7284
215 1 35.2 19.2 0 -11.6482
216 2 36.8 20.8 1.6 -9.77699
217 1 38.4 19.2 0 -11.6659
218 2 40 20.8 1.6 -9.71817
219 1 41.6 19.2 0 -11.5957
220 1 43.2 20.8 1.6 -11.5518
221 1 44.8 19.2 0 -11.5275
222 1 46.4 20.8 1.6 -11.6314
223 2 48 19.2 0 -9.65881
224 1 49.6 20.8 1.6 -11.7039
225 3 0 22.4 0 -11.2619
226 2 1.6 24 1.6 -9.77438
227 2 3.2 22.4 0 -9.83658
228 1 4.8 24 1.6 -11.639
229 1 6.4 22.4 0 -11.7113
230 1 8 24 1.6 -11.7568
231 3 9.6 22.4 0 -11.2896
232 1 11.2 24 1.6 -11.7695
233 2 12.8 22.4 0 -9.79448
234 2 14.4 24 1.6 -9.72907
235 1 16 22.4 0 -11.7857
236 2 17.6 24 1.6 -9.66601
237 1 19.2 22.4 0 -11.6235
238 1 20.8 24 1.6 -11.5917
239 3 22.4 22.4 0 -11.1152
240 1 24 24 1.6 -11.7364
241 3 25.6 22.4 0 -11.2013
242 2 27.2 24 1.6 -9.81573
243 1 28.8 22.4 0 -11.7441
244 2 30.4 24 1.6 -9.75475
245 3 32 22.4 0 -11.1374
246 1 33.6 24 1.6 -11.708
247 3 35.2 22.4 0 -11.2695
248 1 36.8 24 1.6 -11.8677
249 3 38.4 22.4 0 -11.3178
250 1 40 24 1.6 -11.7438
251 1 41.6 22.4 0 -11.6266
252 1 43.2 24 1.6 -11.7563
253 2 44.8 22.4 0 -9.76105
254 3 46.4 24 1.6 -11.3424
255 2 48 22.4 0 -9.77959
256 3 49.6 24 1.6 -11.2249
257 1 0 25.6 0 -11.7231
259 1 3.2 25.6 0 -11.7012
261 2 6.4 25.6 0 -9.75322
263 3 9.6 25.6 0 -11.294
265 2 12.8 25.6 0 -9.86962
267 1 16 25.6 0 -11.7448
269 1 19.2 25.6 0 -11.6086
271 3 22.4 25.6 0 -11.2272
273 3 25.6 25.6 0 -11.3074
275 3 28.8 25.6 0 -11.1133
277 1 32 25.6 0 -11.4971
279 3 35.2 25.6 0 -11.1232
281 3 38.4 25.6 0 -11.1238
283 2 41.6 25.6 0 -9.73832
285 2 44.8 25.6 0 -9.92677
287 1 48 25.6 0 -11.6942
258 3 1.6 27.2 1.6 -11.2902
289 1 0 28.8 0 -11.7116
260 2 4.8 27.2 1.6 -9.8507
291 2 3.2 28.8 0 -9.8565
262 1 8 27.2 1.6 -11.8066
293 2 6.4 28.8 0 -9.83222
264 1 11.2 27.2 1.6 -11.8043
295 2 9.6 28.8 0 -9.84191
266 2 14.4 27.2 1.6 -9.83262
297 2 12.8 28.8 0 -9.84955
268 2 17.6 27.2 1.6 -9.79754
299 3 16 28.8 0 -11.2518
270 2 20.8 27.2 1.6 -9.75735
301 2 19.2 28.8 0 -9.7692
272 2 24 27.2 1.6 -9.81468
303 2 22.4 28.8 0 -9.84125
305 2 25.6 28.8 0 -9.88888
274 1 27.2 27.2 1.6 -11.8445
307 3 28.8 28.8 0 -11.2933
276 1 30.4 27.2 1.6 -11.6965
309 2 32 28.8 0 -9.62598
278 1 33.6 27.2 1.6 -11.6814
311 3 35.2 28.8 0 -11.2362
280 1 36.8 27.2 1.6 -11.8545
313 2 38.4 28.8 0 -9.72384
282 1 40 27.2 1.6 -11.7834
315 2 41.6 28.8 0 -9.71812
284 2 43.2 27.2 1.6 -9.78659
317 3 44.8 28.8 0 -11.1378
286 2 46.4 27.2 1.6 -9.88866
319 1 48 28.8 0 -11.5992
288 3 49.6 27.2 1.6 -11.1634
290 3 1.6 30.4 1.6 -11.2796
321 3 0 32 0 -11.0622
292 1 4.8 30.4 1.6 -11.7259
323 2 3.2 32 0 -9.84858
294 1 8 30.4 1.6 -11.6566
325 3 6.4 32 0 -11.1452
296 1 11.2 30.4 1.6 -11.7866
327 3 9.6 32 0 -11.2323
298 1 14.4 30.4 1.6 -11.7914
329 3 12.8 32 0 -11.1954
300 1 17.6 30.4 1.6 -11.7262
331 3 16 32 0 -11.2444
302 2 20.8 30.4 1.6 -9.82309
333 3 19.2 32 0 -11.2272
304 2 24 30.4 1.6 -9.91047
335 2 22.4 32 0 -9.84871
337 1 25.6 32 0 -11.7314
306 2 27.2 30.4 1.6 -9.85664
339 2 28.8 32 0 -9.75938
308 1 30.4 30.4 1.6 -11.7825
341 2 32 32 0 -9.73173
310 1 33.6 30.4 1.6 -11.7576
343 2 35.2 32 0 -9.78999
312 3 36.8 30.4 1.6 -11.2137
345 1 38.4 32 0 -11.6576
314 1 40 30.4 1.6 -11.6875
347 2 41.6 32 0 -9.66898
316 1 43.2 30.4 1.6 -11.6582
349 1 44.8 32 0 -11.4683
318 2 46.4 30.4 1.6 -9.62504
351 2 48 32 0 -9.59953
320 2 49.6 30.4 1.6 -9.74772
322 2 1.6 33.6 1.6 -9.79998
353 1 0 35.2 0 -11.7002
324 3 4.8 33.6 1.6 -11.1808
355 1 3.2 35.2 0 -11.7439
326 1 8 33.6 1.6 -11.6484
357 2 6.4 35.2 0 -9.79645
328 1 11.2 33.6 1.6 -11.6529
359 2 9.6 35.2 0 -9.75725
330 1 14.4 33.6 1.6 -11.7038
361 2 12.8 35.2 0 -9.70026
332 1 17.6 33.6 1.6 -11.7824
363 3 16 35.2 0 -11.1255
334 2 20.8 33.6 1.6 -9.86919
365 3 19.2 35.2 0 -11.0318
336 3 24 33.6 1.6 -11.3452
367 1 22.4 35.2 0 -11.6607
369 2 25.6 35.2 0 -9.69854
338 2 27.2 33.6 1.6 -9.74153
371 1 28.8 35.2 0 -11.7053
340 1 30.4 33.6 1.6 -11.698
373 2 32 35.2 0 -9.82197
342 1 33.6 33.6 1.6 -11.794
375 2 35.2 35.2 0 -9.86692
344 2 36.8 33.6 1.6 -9.90416
377 2 38.4 35.2 0 -9.7273
346 2 40 33.6 1.6 -9.7949
379 1 41.6 35.2 0 -11.6678
348 2 43.2 33.6 1.6 -9.76241
381 1 44.8 35.2 0 -11.654
350 1 46.4 33.6 1.6 -11.5738
383 3 48 35.2 0 -11.2591
352 1 49.6 33.6 1.6 -11.6143
354 3 1.6 36.8 1.6 -11.2366
385 1 0 38.4 0 -11.7748
356 3 4.8 36.8 1.6 -11.2766
387 1 3.2 38.4 0 -11.7243
358 3 8 36.8 1.6 -11.1927
389 1 6.4 38.4 0 -11.6806
360 3 11.2 36.8 1.6 -11.0889
391 2 9.6 38.4 0 -9.69555
362 1 14.4 36.8 1.6 -11.5956
393 2 12.8 38.4 0 -9.68084
364 1 17.6 36.8 1.6 -11.5666
395 2 16 38.4 0 -9.74259
366 1 20.8 36.8 1.6 -11.5739
397 1 19.2 38.4 0 -11.5623
368 3 24 36.8 1.6 -11.266
399 2 22.4 38.4 0 -9.64321
401 1 25.6 38.4 0 -11.7319
370 3 27.2 36.8 1.6 -11.3412
403 1 28.8 38.4 0 -11.853
372 3 30.4 36.8 1.6 -11.2679
405 1 32 38.4 0 -11.8019
374 2 33.6 36.8 1.6 -9.85662
407 2 35.2 38.4 0 -9.82077
376 2 36.8 36.8 1.6 -9.83452
409 3 38.4 38.4 0 -11.1609
378 1 40 36.8 1.6 -11.7141
411 2 41.6 38.4 0 -9.65774
380 2 43.2 36.8 1.6 -9.90551
413 1 44.8 38.4 0 -11.7716
382 3 46.4 36.8 1.6 -11.3165
415 1 48 38.4 0 -11.7835
384 3 49.6 36.8 1.6 -11.4057
386 3 1.6 40 1.6 -11.3081
417 3 0 41.6 0 -11.3544
388 3 4.8 40 1.6 -11.0807
419 1 3.2 41.6 0 -11.777
390 2 8 40 1.6 -9.65924
421 1 6.4 41.6 0 -11.6779
392 1 11.2 40 1.6 -11.5786
423 1 9.6 41.6 0 -11.6294
394 1 14.4 40 1.6 -11.6178
425 2 12.8 41.6 0 -9.57943
396 3 17.6 40 1.6 -11.1998
427 2 16 41.6 0 -9.8126
398 2 20.8 40 1.6 -9.81638
429 1 19.2 41.6 0 -11.8002
400 2 24 40 1.6 -9.82945
431 1 22.4 41.6 0 -11.6254
433 1 25.6 41.6 0 -11.6035
402 3 27.2 40 1.6 -11.359
435 3 28.8 41.6 0 -11.3467
404 3 30.4 40 1.6 -11.3477
437 3 32 41.6 0 -11.361
406 1 33.6 40 1.6 -11.719
439 2 35.2 41.6 0 -9.80686
408 1 36.8 40 1.6 -11.7821
441 3 38.4 41.6 0 -11.2013
410 1 40 40 1.6 -11.6909
443 1 41.6 41.6 0 -11.7022
412 2 43.2 40 1.6 -9.83823
445 1 44.8 41.6 0 -11.7724
414 1 46.4 40 1.6 -11.6948
447 3 48 41.6 0 -11.3286
416 2 49.6 40 1.6 -9.78859
418 3 1.6 43.2 1.6 -11.2967
449 1 0 44.8 0 -11.6861
420 3 4.8 43.2 1.6 -11.2338
451 1 3.2 44.8 0 -11.6504
422 2 8 43.2 1.6 -9.64852
453 1 6.4 44.8 0 -11.7248
424 2 11.2 43.2 1.6 -9.671
455 1 9.6 44.8 0 -11.6522
426 1 14.4 43.2 1.6 -11.5565
457 1 12.8 44.8 0 -11.5294
428 2 17.6 43.2 1.6 -9.73973
459 1 16 44.8 0 -11.5176
430 2 20.8 43.2 1.6 -9.8514
461 1 19.2 44.8 0 -11.6951
432 3 24 43.2 1.6 -11.089
463 1 22.4 44.8 0 -11.7391
465 1 25.6 44.8 0 -11.5798
434 2 27.2 43.2 1.6 -9.74653
467 1 28.8 44.8 0 -11.6723
436 2 30.4 43.2 1.6 -9.85604
469 2 32 44.8 0 -9.80858
438 1 33.6 43.2 1.6 -11.797
471 3 35.2 44.8 0 -11.0391
440 1 36.8 43.2 1.6 -11.8119
473 3 38.4 44.8 0 -11.2879
442 1 40 43.2 1.6 -11.7517
475 1 41.6 44.8 0 -11.8295
444 3 43.2 43.2 1.6 -11.153
477 1 44.8 44.8 0 -11.7801
446 2 46.4 43.2 1.6 -9.81595
479 1 48 44.8 0 -11.8206
448 3 49.6 43.2 1.6 -11.3768
450 1 1.6 46.4 1.6 -11.5114
481 1 0 48 0 -11.5156
452 3 4.8 46.4 1.6 -11.3157
483 2 3.2 48 0 -9.63114
454 2 8 46.4 1.6 -9.80458
485 1 6.4 48 0 -11.7949
456 2 11.2 46.4 1.6 -9.63684
487 2 9.6 48 0 -9.81634
458 1 14.4 46.4 1.6 -11.6498
489 2 12.8 48 0 -9.67784
460 1 17.6 46.4 1.6 -11.736
491 3 16 48 0 -11.1942
462 2 20.8 46.4 1.6 -9.7936
493 3 19.2 48 0 -11.2606
464 2 24 46.4 1.6 -9.79591
495 2 22.4 48 0 -9.85014
497 1 25.6 48 0 -11.7105
466 1 27.2 46.4 1.6 -11.4035
499 1 28.8 48 0 -11.7673
468 3 30.4 46.4 1.6 -11.185
501 1 32 48 0 -11.7488
470 2 33.6 46.4 1.6 -9.72154
503 1 35.2 48 0 -11.5804
472 1 36.8 46.4 1.6 -11.6191
505 1 38.4 48 0 -11.7435
474 3 40 46.4 1.6 -11.2925
507 1 41.6 48 0 -11.8112
476 3 43.2 46.4 1.6 -11.2726
509 1 44.8 48 0 -11.7828
478 2 46.4 46.4 1.6 -9.67676
511 1 48 48 0 -11.8122
480 3 49.6 46.4 1.6 -11.1654
482 1 1.6 49.6 1.6 -11.5049
484 3 4.8 49.6 1.6 -11.2455
486 2 8 49.6 1.6 -9.89888
488 1 11.2 49.6 1.6 -11.7166
490 1 14.4 49.6 1.6 -11.677
492 1 17.6 49.6 1.6 -11.8118
494 1 20.8 49.6 1.6 -11.7637
496 3 24 49.6 1.6 -11.2498
498 3 27.2 49.6 1.6 -11.1542
500 3 30.4 49.6 1.6 -11.2748
502 3 33.6 49.6 1.6 -11.2068
504 3 36.8 49.6 1.6 -11.0869
506 3 40 49.6 1.6 -11.1247
508 3 43.2 49.6 1.6 -11.2054
510 3 46.4 49.6 1.6 -11.2048
512 3 49.6 49.6 1.6 -11.2702
513 2 0 0 3.2 -9.74297
514 2 1.6 1.6 4.8 -9.75121
515 1 3.2 0 3.2 -11.7057
516 3 4.8 1.6 4.8 -11.2859
517 1 6.4 0 3.2 -11.8152
518 3 8 1.6 4.8 -11.1934
519 3 9.6 0 3.2 -11.2594
520 1 11.2 1.6 4.8 -11.6524
521 2 12.8 0 3.2 -9.79306
522 3 14.4 1.6 4.8 -11.208
523 2 16 0 3.2 -9.83537
524 1 17.6 1.6 4.8 -11.636
525 3 19.2 0 3.2 -11.0706
526 1 20.8 1.6 4.8 -11.7459
527 3 22.4 0 3.2 -11.345
528 3 24 1.6 4.8 -11.3215
529 1 25.6 0 3.2 -11.8016
530 2 27.2 1.6 4.8 -9.74944
531 2 28.8 0 3.2 -9.75033
532 3 30.4 1.6 4.8 -11.2199
533 1 32 0 3.2 -11.8013
534 1 33.6 1.6 4.8 -11.6659
535 1 35.2 0 3.2 -11.6944
536 1 36.8 1.6 4.8 -11.7181
537 1 38.4 0 3.2 -11.6471
538 1 40 1.6 4.8 -11.6989
539 1 41.6 0 3.2 -11.6557
540 1 43.2 1.6 4.8 -11.5802
541 1 44.8 0 3.2 -11.6764
542 1 46.4 1.6 4.8 -11.5198
543 1 48 0 3.2 -11.7303
544 1 49.6 1.6 4.8 -11.5744
545 2 0 3.2 3.2 -9.81565
546 1 1.6 4.8 4.8 -11.7369
547 2 3.2 3.2 3.2 -9.86135
548 3 4.8 4.8 4.8 -11.2939
549 1 6.4 3.2 3.2 -11.7461
550 2 8 4.8 4.8 -9.75012
551 1 9.6 3.2 3.2 -11.6844
552 2 11.2 4.8 4.8 -9.7026
553 1 12.8 3.2 3.2 -11.7519
554 3 14.4 4.8 4.8 -11.2279
555 1 16 3.2 3.2 -11.727
556 2 17.6 4.8 4.8 -9.77414
557 2 19.2 3.2 3.2 -9.79062
558 1 20.8 4.8 4.8 -11.839
559 3 22.4 3.2 3.2 -11.2097
560 2 24 4.8 4.8 -9.74294
561 1 25.6 3.2 3.2 -11.6406
562 2 27.2 4.8 4.8 -9.72305
563 1 28.8 3.2 3.2 -11.7723
564 1 30.4 4.8 4.8 -11.817
565 3 32 3.2 3.2 -11.3254
566 1 33.6 4.8 4.8 -11.8519
567 2 35.2 3.2 3.2 -9.84992
568 1 36.8 4.8 4.8 -11.8382
569 3 38.4 3.2 3.2 -11.2568
570 1 40 4.8 4.8 -11.7702
571 2 41.6 3.2 3.2 -9.63335
572 1 43.2 4.8 4.8 -11.5649
573 1 44.8 3.2 3.2 -11.5174
574 2 46.4 4.8 4.8 -9.78686
575 3 48 3.2 3.2 -11.2529
576 1 49.6 4.8 4.8 -11.7191
577 1 0 6.4 3.2 -11.6677
578 3 1.6 8 4.8 -11.2925
579 1 3.2 6.4 3.2 -11.7663
580 3 4.8 8 4.8 -11.2653
581 1 6.4 6.4 3.2 -11.69
582 3 8 8 4.8 -11.2843
583 2 9.6 6.4 3.2 -9.77605
584 2 11.2 8 4.8 -9.93195
585 1 12.8 6.4 3.2 -11.8185
586 2 14.4 8 4.8 -9.78897
587 1 16 6.4 3.2 -11.6867
588 1 17.6 8 4.8 -11.6788
589 3 19.2 6.4 3.2 -11.1946
590 1 20.8 8 4.8 -11.853
591 3 22.4 6.4 3.2 -11.2044
592 1 24 8 4.8 -11.6296
593 1 25.6 6.4 3.2 -11.5134
594 2 27.2 8 4.8 -9.71123
595 3 28.8 6.4 3.2 -11.336
596 1 30.4 8 4.8 -11.8751
597 3 32 6.4 3.2 -11.4055
598 1 33.6 8 4.8 -11.7472
599 3 35.2 6.4 3.2 -11.2855
600 2 36.8 8 4.8 -9.72915
601 3 38.4 6.4 3.2 -11.2817
602 3 40 8 4.8 -11.2016
603 2 41.6 6.4 3.2 -9.78158
604 2 43.2 8 4.8 -9.78869
605 1 44.8 6.4 3.2 -11.6393
606 2 46.4 8 4.8 -9.77179
607 2 48 6.4 3.2 -9.85706
608 2 49.6 8 4.8 -9.8317
609 1 0 9.6 3.2 -11.7515
610 3 1.6 11.2 4.8 -11.1251
611 1 3.2 9.6 3.2 -11.6857
612 2 4.8 11.2 4.8 -9.64698
613 1 6.4 9.6 3.2 -11.5799
614 3 8 11.2 4.8 -11.2517
615 3 9.6 9.6 3.2 -11.3182
616 3 11.2 11.2 4.8 -11.3272
617 1 12.8 9.6 3.2 -11.8205
618 3 14.4 11.2 4.8 -11.1648
619 1 16 9.6 3.2 -11.6808
620 3 17.6 11.2 4.8 -11.2217
621 2 19.2 9.6 3.2 -9.85472
622 3 20.8 11.2 4.8 -11.2991
623 3 22.4 9.6 3.2 -11.2726
624 2 24 11.2 4.8 -9.78825
625 1 25.6 9.6 3.2 -11.6113
626 2 27.2 11.2 4.8 -9.8992
627 3 28.8 9.6 3.2 -11.4392
628 3 30.4 11.2 4.8 -11.4252
629 2 32 9.6 3.2 -9.90865
630 2 33.6 11.2 4.8 -9.8017
631 1 35.2 9.6 3.2 -11.6319
632 2 36.8 11.2 4.8 -9.691
633 1 38.4 9.6 3.2 -11.7374
634 2 40 11.2 4.8 -9.78166
635 1 41.6 9.6 3.2 -11.8121
636 3 43.2 11.2 4.8 -11.1965
637 1 44.8 9.6 3.2 -11.6874
638 2 46.4 11.2 4.8 -9.67724
639 1 48 9.6 3.2 -11.7448
640 3 49.6 11.2 4.8 -11.1238
641 1 0 12.8 3.2 -11.8119
642 3 1.6 14.4 4.8 -11.2429
643 1 3.2 12.8 3.2 -11.6744
644 3 4.8 14.4 4.8 -11.1664
645 1 6.4 12.8 3.2 -11.6173
646 3 8 14.4 4.8 -11.2051
647 1 9.6 12.8 3.2 -11.7981
648 3 11.2 14.4 4.8 -11.2429
649 1 12.8 12.8 3.2 -11.841
650 3 14.4 14.4 4.8 -11.2048
651 1 16 12.8 3.2 -11.8117
652 2 17.6 14.4 4.8 -9.67712
653 1 19.2 12.8 3.2 -11.8039
654 2 20.8 14.4 4.8 -9.74924
655 1 22.4 12.8 3.2 -11.7688
656 2 24 14.4 4.8 -9.78534
657 1 25.6 12.8 3.2 -11.7322
658 2 27.2 14.4 4.8 -9.86939
659 2 28.8 12.8 3.2 -9.8781
660 2 30.4 14.4 4.8 -9.83256
661 3 32 12.8 3.2 -11.377
662 2 33.6 14.4 4.8 -9.81331
663 1 35.2 12.8 3.2 -11.7922
664 2 36.8 14.4 4.8 -9.84226
665 1 38.4 12.8 3.2 -11.7587
666 2 40 14.4 4.8 -9.76095
667 1 41.6 12.8 3.2 -11.8141
668 3 43.2 14.4 4.8 -11.337
669 1 44.8 12.8 3.2 -11.8048
670 3 46.4 14.4 4.8 -11.3282
671 1 48 12.8 3.2 -11.8045
672 3 49.6 14.4 4.8 -11.3089
673 1 0 16 3.2 -11.8365
674 3 1.6 17.6 4.8 -11.2995
675 1 3.2 16 3.2 -11.7873
676 2 4.8 17.6 4.8 -9.77588
677 1 6.4 16 3.2 -11.7198
678 3 8 17.6 4.8 -11.1987
679 1 9.6 16 3.2 -11.7205
680 3 11.2 17.6 4.8 -11.2687
681 1 12.8 16 3.2 -11.7884
682 3 14.4 17.6 4.8 -11.2748
683 1 16 16 3.2 -11.7846
684 3 17.6 17.6 4.8 -11.1645
685 1 19.2 16 3.2 -11.8073
686 3 20.8 17.6 4.8 -11.3238
687 2 22.4 16 3.2 -9.86014
688 1 24 17.6 4.8 -11.7447
689 2 25.6 16 3.2 -9.92375
690 1 27.2 17.6 4.8 -11.651
691 2 28.8 16 3.2 -9.78797
692 2 30.4 17.6 4.8 -9.73939
693 2 32 16 3.2 -9.86629
694 1 33.6 17.6 4.8 -11.72
695 2 35.2 16 3.2 -9.83353
696 2 36.8 17.6 4.8 -9.72793
697 1 38.4 16 3.2 -11.7635
698 2 40 17.6 4.8 -9.73269
699 1 41.6 16 3.2 -11.7796
700 3 43.2 17.6 4.8 -11.2595
701 2 44.8 16 3.2 -9.88865
702 3 46.4 17.6 4.8 -11.4429
703 2 48 16 3.2 -9.89239
704 3 49.6 17.6 4.8 -11.333
705 2 0 19.2 3.2 -9.85699
706 3 1.6 20.8 4.8 -11.4321
707 2 3.2 19.2 3.2 -9.84616
708 3 4.8 20.8 4.8 -11.3602
709 1 6.4 19.2 3.2 -11.8026
710 2 8 20.8 4.8 -9.92733
711 2 9.6 19.2 3.2 -9.87592
712 3 11.2 20.8 4.8 -11.2959
713 2 12.8 19.2 3.2 -9.77095
714 3 14.4 20.8 4.8 -11.2368
715 1 16 19.2 3.2 -11.8192
716 3 17.6 20.8 4.8 -11.3394
717 1 19.2 19.2 3.2 -11.8234
718 3 20.8 20.8 4.8 -11.4266
719 3 22.4 19.2 3.2 -11.3181
720 1 24 20.8 4.8 -11.7056
721 3 25.6 19.2 3.2 -11.1395
722 1 27.2 20.8 4.8 -11.6134
723 1 28.8 19.2 3.2 -11.658
724 2 30.4 20.8 4.8 -9.79276
725 2 32 19.2 3.2 -9.84062
726 2 33.6 20.8 4.8 -9.78861
727 2 35.2 19.2 3.2 -9.74633
728 1 36.8 20.8 4.8 -11.6331
729 1 38.4 19.2 3.2 -11.5892
730 1 40 20.8 4.8 -11.5742
731 1 41.6 19.2 3.2 -11.6079
732 1 43.2 20.8 4.8 -11.6229
733 2 44.8 19.2 3.2 -9.78413
734 3 46.4 20.8 4.8 -11.2252
735 2 48 19.2 3.2 -9.82282
736 3 49.6 20.8 4.8 -11.2979
737 2 0 22.4 3.2 -9.85563
738 2 1.6 24 4.8 -9.81675
739 2 3.2 22.4 3.2 -9.89554
740 1 4.8 24 4.8 -11.7592
741 3 6.4 22.4 3.2 -11.2768
742 1 8 24 4.8 -11.7518
743 3 9.6 22.4 3.2 -11.3088
744 2 11.2 24 4.8 -9.86719
745 1 12.8 22.4 3.2 -11.7013
746 2 14.4 24 4.8 -9.69711
747 1 16 22.4 3.2 -11.72
748 3 17.6 24 4.8 -11.2972
749 1 19.2 22.4 3.2 -11.7395
750 3 20.8 24 4.8 -11.3116
751 1 22.4 22.4 3.2 -11.6035
752 1 24 24 4.8 -11.7633
753 2 25.6 22.4 3.2 -9.74313
754 2 27.2 24 4.8 -9.74713
755 3 28.8 22.4 3.2 -11.0384
756 1 30.4 24 4.8 -11.7196
757 1 32 22.4 3.2 -11.6696
758 1 33.6 24 4.8 -11.7495
759 3 35.2 22.4 3.2 -11.2351
760 1 36.8 24 4.8 -11.7502
761 3 38.4 22.4 3.2 -11.2304
762 1 40 24 4.8 -11.7176
763 3 41.6 22.4 3.2 -11.0427
764 1 43.2 24 4.8 -11.7104
765 3 44.8 22.4 3.2 -11.2138
766 3 46.4 24 4.8 -11.3626
767 1 48 22.4 3.2 -11.8003
768 3 49.6 24 4.8 -11.1971
769 1 0 25.6 3.2 -11.7839
771 1 3.2 25.6 3.2 -11.7154
773 3 6.4 25.6 3.2 -11.1923
775 3 9.6 25.6 3.2 -11.3634
777 2 12.8 25.6 3.2 -9.84836
779 1 16 25.6 3.2 -11.7373
781 2 19.2 25.6 3.2 -9.72174
783 3 22.4 25.6 3.2 -11.1858
785 2 25.6 25.6 3.2 -9.87299
787 2 28.8 25.6 3.2 -9.85671
789 3 32 25.6 3.2 -10.995
791 3 35.2 25.6 3.2 -11.2057
793 3 38.4 25.6 3.2 -11.2048
795 3 41.6 25.6 3.2 -11.2006
797 2 44.8 25.6 3.2 -9.94693
799 1 48 25.6 3.2 -11.8171
770 3 1.6 27.2 4.8 -11.2765
801 1 0 28.8 3.2 -11.8215
772 3 4.8 27.2 4.8 -11.3076
803 3 3.2 28.8 3.2 -11.3786
774 1 8 27.2 4.8 -11.7809
805 2 6.4 28.8 3.2 -9.82881
776 3 11.2 27.2 4.8 -11.4078
807 3 9.6 28.8 3.2 -11.3077
778 2 14.4 27.2 4.8 -9.83712
809 2 12.8 28.8 3.2 -9.87626
780 2 17.6 27.2 4.8 -9.71413
811 2 16 28.8 3.2 -9.75625
782 1 20.8 27.2 4.8 -11.7004
813 1 19.2 28.8 3.2 -11.5977
784 1 24 27.2 4.8 -11.7576
815 1 22.4 28.8 3.2 -11.6544
817 3 25.6 28.8 3.2 -11.2204
786 1 27.2 27.2 4.8 -11.787
819 3 28.8 28.8 3.2 -11.2331
788 1 30.4 27.2 4.8 -11.7525
821 2 32 28.8 3.2 -9.70717
790 1 33.6 27.2 4.8 -11.7831
823 3 35.2 28.8 3.2 -11.3025
792 1 36.8 27.2 4.8 -11.7804
825 3 38.4 28.8 3.2 -11.2738
794 1 40 27.2 4.8 -11.7878
827 3 41.6 28.8 3.2 -11.1975
796 1 43.2 27.2 4.8 -11.8403
829 3 44.8 28.8 3.2 -11.3152
798 2 46.4 27.2 4.8 -9.83296
831 2 48 28.8 3.2 -9.79431
800 2 49.6 27.2 4.8 -9.72347
802 3 1.6 30.4 4.8 -11.3225
833 1 0 32 3.2 -11.6394
804 3 4.8 30.4 4.8 -11.2079
835 1 3.2 32 3.2 -11.8062
806 2 8 30.4 4.8 -9.805
837 1 6.4 32 3.2 -11.6751
808 3 11.2 30.4 4.8 -11.3482
839 2 9.6 32 3.2 -9.80375
810 2 14.4 30.4 4.8 -9.87649
841 2 12.8 32 3.2 -9.82024
812 1 17.6 30.4 4.8 -11.6327
843 3 16 32 3.2 -11.2565
814 2 20.8 30.4 4.8 -9.73154
845 2 19.2 32 3.2 -9.74571
816 1 24 30.4 4.8 -11.7635
847 2 22.4 32 3.2 -9.89061
849 2 25.6 32 3.2 -9.80728
818 1 27.2 30.4 4.8 -11.8552
851 3 28.8 32 3.2 -11.1482
820 1 30.4 30.4 4.8 -11.7821
853 3 32 32 3.2 -11.1665
822 1 33.6 30.4 4.8 -11.8116
855 3 35.2 32 3.2 -11.3575
824 1 36.8 30.4 4.8 -11.8529
857 2 38.4 32 3.2 -9.83877
826 1 40 30.4 4.8 -11.7583
859 2 41.6 32 3.2 -9.84671
828 1 43.2 30.4 4.8 -11.7072
861 1 44.8 32 3.2 -11.5452
830 1 46.4 30.4 4.8 -11.6437
863 1 48 32 3.2 -11.469
832 2 49.6 30.4 4.8 -9.59144
834 3 1.6 33.6 4.8 -11.1638
865 2 0 35.2 3.2 -9.75854
836 3 4.8 33.6 4.8 -11.2447
867 1 3.2 35.2 3.2 -11.8419
838 3 8 33.6 4.8 -11.2264
869 1 6.4 35.2 3.2 -11.7805
840 3 11.2 33.6 4.8 -11.2882
871 1 9.6 35.2 3.2 -11.6951
842 3 14.4 33.6 4.8 -11.2278
873 1 12.8 35.2 3.2 -11.6514
844 1 17.6 33.6 4.8 -11.6808
875 2 16 35.2 3.2 -9.72756
846 2 20.8 33.6 4.8 -9.82146
877 2 19.2 35.2 3.2 -9.76108
848 1 24 33.6 4.8 -11.6329
879 3 22.4 35.2 3.2 -11.1867
881 1 25.6 35.2 3.2 -11.6502
850 1 27.2 33.6 4.8 -11.5355
883 1 28.8 35.2 3.2 -11.6396
852 1 30.4 33.6 4.8 -11.6794
885 3 32 35.2 3.2 -11.2409
854 1 33.6 33.6 4.8 -11.7923
887 2 35.2 35.2 3.2 -9.8613
856 2 36.8 33.6 4.8 -9.79784
889 1 38.4 35.2 3.2 -11.7562
858 2 40 33.6 4.8 -9.90154
891 3 41.6 35.2 3.2 -11.2972
860 3 43.2 33.6 4.8 -11.4412
893 3 44.8 35.2 3.2 -11.4363
862 2 46.4 33.6 4.8 -9.59942
895 3 48 35.2 3.2 -11.292
864 1 49.6 33.6 4.8 -11.4692
866 3 1.6 36.8 4.8 -11.3099
897 1 0 38.4 3.2 -11.7691
868 3 4.8 36.8 4.8 -11.2426
899 1 3.2 38.4 3.2 -11.8415
870 3 8 36.8 4.8 -11.1651
901 1 6.4 38.4 3.2 -11.812
872 2 11.2 36.8 4.8 -9.80986
903 1 9.6 38.4 3.2 -11.728
874 2 14.4 36.8 4.8 -9.74091
905 2 12.8 38.4 3.2 -9.6686
876 2 17.6 36.8 4.8 -9.70327
907 1 16 38.4 3.2 -11.5635
878 2 20.8 36.8 4.8 -9.75658
909 1 19.2 38.4 3.2 -11.5672
880 1 24 36.8 4.8 -11.6253
911 1 22.4 38.4 3.2 -11.6648
913 2 25.6 38.4 3.2 -9.78068
882 3 27.2 36.8 4.8 -11.1449
915 1 28.8 38.4 3.2 -11.8668
884 3 30.4 36.8 4.8 -11.2677
917 1 32 38.4 3.2 -11.7709
886 2 33.6 36.8 4.8 -9.84217
919 2 35.2 38.4 3.2 -9.81356
888 2 36.8 36.8 4.8 -9.75906
921 3 38.4 38.4 3.2 -11.1515
890 2 40 36.8 4.8 -9.73256
923 2 41.6 38.4 3.2 -9.88436
892 2 43.2 36.8 4.8 -9.89251
925 3 44.8 38.4 3.2 -11.2629
894 1 46.4 36.8 4.8 -11.7888
927 2 48 38.4 3.2 -9.81797
896 3 49.6 36.8 4.8 -11.1681
898 3 1.6 40 4.8 -11.1646
929 1 0 41.6 3.2 -11.7926
900 3 4.8 40 4.8 -11.1238
931 1 3.2 41.6 3.2 -11.8673
902 3 8 40 4.8 -11.1665
933 1 6.4 41.6 3.2 -11.7809
904 2 11.2 40 4.8 -9.80059
935 1 9.6 41.6 3.2 -11.6532
906 1 14.4 40 4.8 -11.7351
937 2 12.8 41.6 3.2 -9.79917
908 2 17.6 40 4.8 -9.812
939 2 16 41.6 3.2 -9.81498
910 2 20.8 40 4.8 -9.76153
941 3 19.2 41.6 3.2 -11.3221
912 1 24 40 4.8 -11.7417
943 3 22.4 41.6 3.2 -11.3048
945 2 25.6 41.6 3.2 -9.86355
914 3 27.2 40 4.8 -11.3828
947 1 28.8 41.6 3.2 -11.8233
916 3 30.4 40 4.8 -11.2394
949 2 32 41.6 3.2 -9.84885
918 2 33.6 40 4.8 -9.78175
951 3 35.2 41.6 3.2 -11.2535
920 1 36.8 40 4.8 -11.6987
953 3 38.4 41.6 3.2 -11.2381
922 1 40 40 4.8 -11.6692
955 2 41.6 41.6 3.2 -9.75882
924 2 43.2 40 4.8 -9.77628
957 2 44.8 41.6 3.2 -9.81783
926 1 46.4 40 4.8 -11.6741
959 2 48 41.6 3.2 -9.80492
928 1 49.6 40 4.8 -11.6445
930 3 1.6 43.2 4.8 -11.3139
961 1 0 44.8 3.2 -11.7443
932 3 4.8 43.2 4.8 -11.26
963 2 3.2 44.8 3.2 -9.80847
934 3 8 43.2 4.8 -11.1271
965 1 6.4 44.8 3.2 -11.7967
936 3 11.2 43.2 4.8 -11.2705
967 1 9.6 44.8 3.2 -11.6731
938 2 14.4 43.2 4.8 -9.82276
969 2 12.8 44.8 3.2 -9.7821
940 1 17.6 43.2 4.8 -11.8176
971 2 16 44.8 3.2 -9.81057
942 1 20.8 43.2 4.8 -11.8079
973 2 19.2 44.8 3.2 -9.83075
944 1 24 43.2 4.8 -11.8096
975 2 22.4 44.8 3.2 -9.8659
977 1 25.6 44.8 3.2 -11.6464
946 2 27.2 43.2 4.8 -9.83695
979 1 28.8 44.8 3.2 -11.6873
948 2 30.4 43.2 4.8 -9.87764
981 2 32 44.8 3.2 -9.8334
950 2 33.6 43.2 4.8 -9.82857
983 2 35.2 44.8 3.2 -9.84304
952 2 36.8 43.2 4.8 -9.84542
985 3 38.4 44.8 3.2 -11.3433
954 1 40 43.2 4.8 -11.7837
987 2 41.6 44.8 3.2 -9.82677
956 1 43.2 43.2 4.8 -11.6957
989 1 44.8 44.8 3.2 -11.6958
958 2 46.4 43.2 4.8 -9.72527
991 1 48 44.8 3.2 -11.7233
960 2 49.6 43.2 4.8 -9.82233
962 1 1.6 46.4 4.8 -11.7506
993 2 0 48 3.2 -9.74325
964 2 4.8 46.4 4.8 -9.89535
995 2 3.2 48 3.2 -9.80182
966 2 8 46.4 4.8 -9.77579
997 3 6.4 48 3.2 -11.3358
968 1 11.2 46.4 4.8 -11.6941
999 2 9.6 48 3.2 -9.85532
970 2 14.4 46.4 4.8 -9.8455
1001 2 12.8 48 3.2 -9.82182
972 3 17.6 46.4 4.8 -11.2725
1003 3 16 48 3.2 -11.2549
974 1 20.8 46.4 4.8 -11.8066
1005 2 19.2 48 3.2 -9.84425
976 2 24 46.4 4.8 -9.81795
1007 3 22.4 48 3.2 -11.3698
1009 1 25.6 48 3.2 -11.6694
978 3 27.2 46.4 4.8 -11.1948
1011 1 28.8 48 3.2 -11.7822
980 3 30.4 46.4 4.8 -11.3803
1013 1 32 48 3.2 -11.8131
982 2 33.6 46.4 4.8 -9.84937
1015 1 35.2 48 3.2 -11.721
984 2 36.8 46.4 4.8 -9.84749
1017 1 38.4 48 3.2 -11.6632
986 3 40 46.4 4.8 -11.2605
1019 1 41.6 48 3.2 -11.8169
988 3 43.2 46.4 4.8 -11.3362
1021 1 44.8 48 3.2 -11.8092
990 2 46.4 46.4 4.8 -9.74407
1023 1 48 48 3.2 -11.8046
992 3 49.6 46.4 4.8 -11.3169
994 1 1.6 49.6 4.8 -11.6415
996 2 4.8 49.6 4.8 -9.87684
998 2 8 49.6 4.8 -9.88087
1000 2 11.2 49.6 4.8 -9.77709
1002 1 14.4 49.6 4.8 -11.806
1004 1 17.6 49.6 4.8 -11.7008
1006 1 20.8 49.6 4.8 -11.6998
1008 2 24 49.6 4.8 -9.82533
1010 2 27.2 49.6 4.8 -9.75478
1012 3 30.4 49.6 4.8 -11.3741
1014 3 33.6 49.6 4.8 -11.1903
1016 3 36.8 49.6 4.8 -11.1065
1018 1 40 49.6 4.8 -11.6078
1020 3 43.2 49.6 4.8 -11.2407
1022 3 46.4 49.6 4.8 -11.1154
1024 3 49.6 49.6 4.8 -11.2166
1025 1 0 0 6.4 -11.5182
1026 1 1.6 1.6 8 -11.639
1027 2 3.2 0 6.4 -9.65584
1028 1 4.8 1.6 8 -11.6901
1029 2 6.4 0 6.4 -9.7995
1030 3 8 1.6 8 -11.1994
1031 1 9.6 0 6.4 -11.7069
1032 3 11.2 1.6 8 -11.1865
1033 2 12.8 0 6.4 -9.86339
1034 2 14.4 1.6 8 -9.82634
1035 2 16 0 6.4 -9.7345
1036 3 17.6 1.6 8 -11.1926
1037 1 19.2 0 6.4 -11.5911
1038 2 20.8 1.6 8 -9.85497
1039 3 22.4 0 6.4 -11.3104
1040 2 24 1.6 8 -9.9191
1041 1 25.6 0 6.4 -11.63
1042 3 27.2 1.6 8 -11.1809
1043 1 28.8 0 6.4 -11.7665
1044 3 30.4 1.6 8 -11.2514
1045 1 32 0 6.4 -11.714
1046 1 33.6 1.6 8 -11.6623
1047 2 35.2 0 6.4 -9.79258
1048 3 36.8 1.6 8 -11.3291
1049 3 38.4 0 6.4 -11.2352
1050 3 40 1.6 8 -11.3316
1051 3 41.6 0 6.4 -11.2969
1052 1 43.2 1.6 8 -11.7916
1053 2 44.8 0 6.4 -9.68919
1054 1 46.4 1.6 8 -11.6134
1055 1 48 0 6.4 -11.4413
1056 1 49.6 1.6 8 -11.5216
1057 2 0 3.2 6.4 -9.72468
1058 3 1.6 4.8 8 -11.4005
1059 2 3.2 3.2 6.4 -9.90279
1060 2 4.8 4.8 8 -9.8339
1061 1 6.4 3.2 6.4 -11.7518
1062 3 8 4.8 8 -11.0738
1063 1 9.6 3.2 6.4 -11.6444
1064 1 11.2 4.8 8 -11.5406
1065 2 12.8 3.2 6.4 -9.78379
1066 1 14.4 4.8 8 -11.6112
1067 1 16 3.2 6.4 -11.6988
1068 2 17.6 4.8 8 -9.70461
1069 2 19.2 3.2 6.4 -9.73329
1070 1 20.8 4.8 8 -11.6813
1071 3 22.4 3.2 6.4 -11.4001
1072 2 24 4.8 8 -9.8557
1073 1 25.6 3.2 6.4 -11.7674
1074 3 27.2 4.8 8 -11.3816
1075 1 28.8 3.2 6.4 -11.7805
1076 2 30.4 4.8 8 -9.87319
1077 3 32 3.2 6.4 -11.293
1078 1 33.6 4.8 8 -11.8544
1079 3 35.2 3.2 6.4 -11.2701
1080 1 36.8 4.8 8 -11.8213
1081 3 38.4 3.2 6.4 -11.3806
1082 1 40 4.8 8 -11.7236
1083 3 41.6 3.2 6.4 -11.1894
1084 1 43.2 4.8 8 -11.6797
1085 2 44.8 3.2 6.4 -9.69066
1086 2 46.4 4.8 8 -9.83895
1087 2 48 3.2 6.4 -9.67876
1088 1 49.6 4.8 8 -11.829
1089 3 0 6.4 6.4 -11.4031
1090 3 1.6 8 8 -11.4911
1091 3 3.2 6.4 6.4 -11.3561
1092 3 4.8 8 8 -11.4317
1093 1 6.4 6.4 6.4 -11.852
1094 3 8 8 8 -11.3709
1095 1 9.6 6.4 6.4 -11.7549
1096 3 11.2 8 8 -11.1584
1097 2 12.8 6.4 6.4 -9.74312
1098 2 14.4 8 8 -9.73562
1099 2 16 6.4 6.4 -9.82167
1100 1 17.6 8 8 -11.6633
1101 3 19.2 6.4 6.4 -11.1909
1102 1 20.8 8 8 -11.708
1103 3 22.4 6.4 6.4 -11.27