 # Bcc Mo oriented X=[100] Y=[010] Z=[001].
  
        8192  atoms
           4  atom types
 
      0.000000000000      51.200000000000  xlo xhi
      0.000000000000      51.200000000000  ylo yhi
      0.000000000000      51.200000000000  zlo zhi
 
 
 
Atoms # atomic

1 3 0.0 0.0 0.0
2 1 1.6 1.6 1.6
3 3 3.2 0.0 0.0
4 1 4.8 1.6 1.6
5 3 6.4 0.0 0.0
6 3 8.0 1.6 1.6
7 3 9.6 0.0 0.0
8 3 11.2 1.6 1.6
9 3 12.8 0.0 0.0
10 3 14.4 1.6 1.6
11 3 16.0 0.0 0.0
12 3 17.6 1.6 1.6
13 3 19.2 0.0 0.0
14 3 20.8 1.6 1.6
15 3 22.4 0.0 0.0
16 1 24.0 1.6 1.6
17 3 25.6 0.0 0.0
18 1 27.2 1.6 1.6
19 3 28.8 0.0 0.0
20 1 30.4 1.6 1.6
21 3 32.0 0.0 0.0
22 3 33.6 1.6 1.6
23 3 35.2 0.0 0.0
24 1 36.8 1.6 1.6
25 3 38.4 0.0 0.0
26 3 40.0 1.6 1.6
27 3 41.6 0.0 0.0
28 3 43.2 1.6 1.6
29 1 44.8 0.0 0.0
30 3 46.4 1.6 1.6
31 1 48.0 0.0 0.0
32 3 49.6 1.6 1.6
33 2 0.0 3.2 0.0
34 1 1.6 4.8 1.6
35 3 3.2 3.2 0.0
36 1 4.8 4.8 1.6
37 2 6.4 3.2 0.0
38 2 8.0 4.8 1.6
39 1 9.6 3.2 0.0
40 1 11.2 4.8 1.6
41 3 12.8 3.2 0.0
42 2 14.4 4.8 1.6
43 1 16.0 3.2 0.0
44 3 17.6 4.8 1.6
45 1 19.2 3.2 0.0
46 2 20.8 4.8 1.6
47 3 22.4 3.2 0.0
48 1 24.0 4.8 1.6
49 3 25.6 3.2 0.0
50 1 27.2 4.8 1.6
51 3 28.8 3.2 0.0
52 3 30.4 4.8 1.6
53 3 32.0 3.2 0.0
54 1 33.6 4.8 1.6
55 3 35.2 3.2 0.0
56 3 36.8 4.8 1.6
57 3 38.4 3.2 0.0
58 3 40.0 4.8 1.6
59 1 41.6 3.2 0.0
60 3 43.2 4.8 1.6
61 1 44.8 3.2 0.0
62 3 46.4 4.8 1.6
63 1 48.0 3.2 0.0
64 3 49.6 4.8 1.6
65 3 0.0 6.4 0.0
66 3 1.6 8.0 1.6
67 3 3.2 6.4 0.0
68 3 4.8 8.0 1.6
69 3 6.4 6.4 0.0
70 3 8.0 8.0 1.6
71 2 9.6 6.4 0.0
72 1 11.2 8.0 1.6
73 2 12.8 6.4 0.0
74 3 14.4 8.0 1.6
75 2 16.0 6.4 0.0
76 3 17.6 8.0 1.6
77 3 19.2 6.4 0.0
78 2 20.8 8.0 1.6
79 2 22.4 6.4 0.0
80 3 24.0 8.0 1.6
81 3 25.6 6.4 0.0
82 3 27.2 8.0 1.6
83 3 28.8 6.4 0.0
84 3 30.4 8.0 1.6
85 3 32.0 6.4 0.0
86 1 33.6 8.0 1.6
87 3 35.2 6.4 0.0
88 1 36.8 8.0 1.6
89 3 38.4 6.4 0.0
90 1 40.0 8.0 1.6
91 3 41.6 6.4 0.0
92 1 43.2 8.0 1.6
93 3 44.8 6.4 0.0
94 1 46.4 8.0 1.6
95 3 48.0 6.4 0.0
96 3 49.6 8.0 1.6
97 1 0.0 9.6 0.0
98 3 1.6 11.2 1.6
99 1 3.2 9.6 0.0
100 3 4.8 11.2 1.6
101 1 6.4 9.6 0.0
102 2 8.0 11.2 1.6
103 1 9.6 9.6 0.0
104 3 11.2 11.2 1.6
105 1 12.8 9.6 0.0
106 3 14.4 11.2 1.6
107 1 16.0 9.6 0.0
108 3 17.6 11.2 1.6
109 3 19.2 9.6 0.0
110 3 20.8 11.2 1.6
111 3 22.4 9.6 0.0
112 3 24.0 11.2 1.6
113 2 25.6 9.6 0.0
114 2 27.2 11.2 1.6
115 3 28.8 9.6 0.0
116 1 30.4 11.2 1.6
117 3 32.0 9.6 0.0
118 1 33.6 11.2 1.6
119 3 35.2 9.6 0.0
120 1 36.8 11.2 1.6
121 3 38.4 9.6 0.0
122 1 40.0 11.2 1.6
123 3 41.6 9.6 0.0
124 3 43.2 11.2 1.6
125 3 44.8 9.6 0.0
126 1 46.4 11.2 1.6
127 3 48.0 9.6 0.0
128 3 49.6 11.2 1.6
129 3 0.0 12.8 0.0
130 3 1.6 14.4 1.6
131 1 3.2 12.8 0.0
132 2 4.8 14.4 1.6
133 1 6.4 12.8 0.0
134 2 8.0 14.4 1.6
135 1 9.6 12.8 0.0
136 3 11.2 14.4 1.6
137 1 12.8 12.8 0.0
138 3 14.4 14.4 1.6
139 1 16.0 12.8 0.0
140 3 17.6 14.4 1.6
141 3 19.2 12.8 0.0
142 3 20.8 14.4 1.6
143 1 22.4 12.8 0.0
144 3 24.0 14.4 1.6
145 2 25.6 12.8 0.0
146 3 27.2 14.4 1.6
147 3 28.8 12.8 0.0
148 3 30.4 14.4 1.6
149 3 32.0 12.8 0.0
150 3 33.6 14.4 1.6
151 3 35.2 12.8 0.0
152 1 36.8 14.4 1.6
153 3 38.4 12.8 0.0
154 1 40.0 14.4 1.6
155 3 41.6 12.8 0.0
156 3 43.2 14.4 1.6
157 3 44.8 12.8 0.0
158 1 46.4 14.4 1.6
159 3 48.0 12.8 0.0
160 1 49.6 14.4 1.6
161 3 0.0 16.0 0.0
162 1 1.6 17.6 1.6
163 3 3.2 16.0 0.0
164 1 4.8 17.6 1.6
165 3 6.4 16.0 0.0
166 2 8.0 17.6 1.6
167 1 9.6 16.0 0.0
168 3 11.2 17.6 1.6
169 1 12.8 16.0 0.0
170 1 14.4 17.6 1.6
171 3 16.0 16.0 0.0
172 3 17.6 17.6 1.6
173 1 19.2 16.0 0.0
174 3 20.8 17.6 1.6
175 1 22.4 16.0 0.0
176 3 24.0 17.6 1.6
177 2 25.6 16.0 0.0
178 3 27.2 17.6 1.6
179 3 28.8 16.0 0.0
180 1 30.4 17.6 1.6
181 3 32.0 16.0 0.0
182 3 33.6 17.6 1.6
183 3 35.2 16.0 0.0
184 1 36.8 17.6 1.6
185 2 38.4 16.0 0.0
186 2 40.0 17.6 1.6
187 1 41.6 16.0 0.0
188 3 43.2 17.6 1.6
189 2 44.8 16.0 0.0
190 1 46.4 17.6 1.6
191 2 48.0 16.0 0.0
192 1 49.6 17.6 1.6
193 3 0.0 19.2 0.0
194 1 1.6 20.8 1.6
195 3 3.2 19.2 0.0
196 2 4.8 20.8 1.6
197 3 6.4 19.2 0.0
198 1 8.0 20.8 1.6
199 2 9.6 19.2 0.0
200 1 11.2 20.8 1.6
201 3 12.8 19.2 0.0
202 3 14.4 20.8 1.6
203 3 16.0 19.2 0.0
204 3 17.6 20.8 1.6
205 3 19.2 19.2 0.0
206 3 20.8 20.8 1.6
207 1 22.4 19.2 0.0
208 3 24.0 20.8 1.6
209 1 25.6 19.2 0.0
210 3 27.2 20.8 1.6
211 3 28.8 19.2 0.0
212 1 30.4 20.8 1.6
213 2 32.0 19.2 0.0
214 1 33.6 20.8 1.6
215 3 35.2 19.2 0.0
216 1 36.8 20.8 1.6
217 3 38.4 19.2 0.0
218 3 40.0 20.8 1.6
219 1 41.6 19.2 0.0
220 3 43.2 20.8 1.6
221 2 44.8 19.2 0.0
222 2 46.4 20.8 1.6
223 3 48.0 19.2 0.0
224 2 49.6 20.8 1.6
225 1 0.0 22.4 0.0
226 3 1.6 24.0 1.6
227 2 3.2 22.4 0.0
228 1 4.8 24.0 1.6
229 3 6.4 22.4 0.0
230 1 8.0 24.0 1.6
231 3 9.6 22.4 0.0
232 1 11.2 24.0 1.6
233 3 12.8 22.4 0.0
234 3 14.4 24.0 1.6
235 3 16.0 22.4 0.0
236 3 17.6 24.0 1.6
237 3 19.2 22.4 0.0
238 3 20.8 24.0 1.6
239 1 22.4 22.4 0.0
240 3 24.0 24.0 1.6
241 1 25.6 22.4 0.0
242 3 27.2 24.0 1.6
243 3 28.8 22.4 0.0
244 3 30.4 24.0 1.6
245 3 32.0 22.4 0.0
246 3 33.6 24.0 1.6
247 3 35.2 22.4 0.0
248 3 36.8 24.0 1.6
249 3 38.4 22.4 0.0
250 3 40.0 24.0 1.6
251 3 41.6 22.4 0.0
252 3 43.2 24.0 1.6
253 1 44.8 22.4 0.0
254 3 46.4 24.0 1.6
255 1 48.0 22.4 0.0
256 3 49.6 24.0 1.6
257 3 0.0 25.6 0.0
258 1 1.6 27.2 1.6
259 3 3.2 25.6 0.0
260 1 4.8 27.2 1.6
261 3 6.4 25.6 0.0
262 3 8.0 27.2 1.6
263 3 9.6 25.6 0.0
264 2 11.2 27.2 1.6
265 3 12.8 25.6 0.0
266 2 14.4 27.2 1.6
267 1 16.0 25.6 0.0
268 3 17.6 27.2 1.6
269 3 19.2 25.6 0.0
270 3 20.8 27.2 1.6
271 3 22.4 25.6 0.0
272 3 24.0 27.2 1.6
273 1 25.6 25.6 0.0
274 3 27.2 27.2 1.6
275 1 28.8 25.6 0.0
276 3 30.4 27.2 1.6
277 1 32.0 25.6 0.0
278 3 33.6 27.2 1.6
279 1 35.2 25.6 0.0
280 3 36.8 27.2 1.6
281 1 38.4 25.6 0.0
282 3 40.0 27.2 1.6
283 2 41.6 25.6 0.0
284 3 43.2 27.2 1.6
285 2 44.8 25.6 0.0
286 3 46.4 27.2 1.6
287 1 48.0 25.6 0.0
288 3 49.6 27.2 1.6
289 3 0.0 28.8 0.0
290 3 1.6 30.4 1.6
291 3 3.2 28.8 0.0
292 1 4.8 30.4 1.6
293 3 6.4 28.8 0.0
294 3 8.0 30.4 1.6
295 3 9.6 28.8 0.0
296 3 11.2 30.4 1.6
297 3 12.8 28.8 0.0
298 1 14.4 30.4 1.6
299 3 16.0 28.8 0.0
300 3 17.6 30.4 1.6
301 1 19.2 28.8 0.0
302 3 20.8 30.4 1.6
303 1 22.4 28.8 0.0
304 2 24.0 30.4 1.6
305 1 25.6 28.8 0.0
306 3 27.2 30.4 1.6
307 1 28.8 28.8 0.0
308 3 30.4 30.4 1.6
309 3 32.0 28.8 0.0
310 1 33.6 30.4 1.6
311 3 35.2 28.8 0.0
312 1 36.8 30.4 1.6
313 3 38.4 28.8 0.0
314 3 40.0 30.4 1.6
315 1 41.6 28.8 0.0
316 3 43.2 30.4 1.6
317 3 44.8 28.8 0.0
318 3 46.4 30.4 1.6
319 1 48.0 28.8 0.0
320 3 49.6 30.4 1.6
321 1 0.0 32.0 0.0
322 3 1.6 33.6 1.6
323 3 3.2 32.0 0.0
324 1 4.8 33.6 1.6
325 3 6.4 32.0 0.0
326 1 8.0 33.6 1.6
327 3 9.6 32.0 0.0
328 1 11.2 33.6 1.6
329 2 12.8 32.0 0.0
330 2 14.4 33.6 1.6
331 1 16.0 32.0 0.0
332 3 17.6 33.6 1.6
333 1 19.2 32.0 0.0
334 3 20.8 33.6 1.6
335 1 22.4 32.0 0.0
336 3 24.0 33.6 1.6
337 2 25.6 32.0 0.0
338 3 27.2 33.6 1.6
339 1 28.8 32.0 0.0
340 1 30.4 33.6 1.6
341 3 32.0 32.0 0.0
342 1 33.6 33.6 1.6
343 3 35.2 32.0 0.0
344 1 36.8 33.6 1.6
345 3 38.4 32.0 0.0
346 3 40.0 33.6 1.6
347 1 41.6 32.0 0.0
348 3 43.2 33.6 1.6
349 1 44.8 32.0 0.0
350 3 46.4 33.6 1.6
351 1 48.0 32.0 0.0
352 3 49.6 33.6 1.6
353 3 0.0 35.2 0.0
354 1 1.6 36.8 1.6
355 3 3.2 35.2 0.0
356 1 4.8 36.8 1.6
357 3 6.4 35.2 0.0
358 1 8.0 36.8 1.6
359 3 9.6 35.2 0.0
360 1 11.2 36.8 1.6
361 3 12.8 35.2 0.0
362 3 14.4 36.8 1.6
363 1 16.0 35.2 0.0
364 3 17.6 36.8 1.6
365 2 19.2 35.2 0.0
366 3 20.8 36.8 1.6
367 1 22.4 35.2 0.0
368 3 24.0 36.8 1.6
369 1 25.6 35.2 0.0
370 3 27.2 36.8 1.6
371 3 28.8 35.2 0.0
372 3 30.4 36.8 1.6
373 3 32.0 35.2 0.0
374 1 33.6 36.8 1.6
375 3 35.2 35.2 0.0
376 1 36.8 36.8 1.6
377 2 38.4 35.2 0.0
378 1 40.0 36.8 1.6
379 2 41.6 35.2 0.0
380 3 43.2 36.8 1.6
381 3 44.8 35.2 0.0
382 1 46.4 36.8 1.6
383 2 48.0 35.2 0.0
384 1 49.6 36.8 1.6
385 3 0.0 38.4 0.0
386 3 1.6 40.0 1.6
387 3 3.2 38.4 0.0
388 1 4.8 40.0 1.6
389 3 6.4 38.4 0.0
390 3 8.0 40.0 1.6
391 3 9.6 38.4 0.0
392 1 11.2 40.0 1.6
393 3 12.8 38.4 0.0
394 3 14.4 40.0 1.6
395 2 16.0 38.4 0.0
396 3 17.6 40.0 1.6
397 2 19.2 38.4 0.0
398 3 20.8 40.0 1.6
399 3 22.4 38.4 0.0
400 3 24.0 40.0 1.6
401 3 25.6 38.4 0.0
402 1 27.2 40.0 1.6
403 3 28.8 38.4 0.0
404 1 30.4 40.0 1.6
405 3 32.0 38.4 0.0
406 1 33.6 40.0 1.6
407 3 35.2 38.4 0.0
408 1 36.8 40.0 1.6
409 2 38.4 38.4 0.0
410 1 40.0 40.0 1.6
411 2 41.6 38.4 0.0
412 1 43.2 40.0 1.6
413 3 44.8 38.4 0.0
414 1 46.4 40.0 1.6
415 2 48.0 38.4 0.0
416 3 49.6 40.0 1.6
417 3 0.0 41.6 0.0
418 1 1.6 43.2 1.6
419 3 3.2 41.6 0.0
420 1 4.8 43.2 1.6
421 3 6.4 41.6 0.0
422 1 8.0 43.2 1.6
423 3 9.6 41.6 0.0
424 1 11.2 43.2 1.6
425 3 12.8 41.6 0.0
426 1 14.4 43.2 1.6
427 3 16.0 41.6 0.0
428 1 17.6 43.2 1.6
429 3 19.2 41.6 0.0
430 2 20.8 43.2 1.6
431 3 22.4 41.6 0.0
432 3 24.0 43.2 1.6
433 3 25.6 41.6 0.0
434 1 27.2 43.2 1.6
435 3 28.8 41.6 0.0
436 1 30.4 43.2 1.6
437 3 32.0 41.6 0.0
438 2 33.6 43.2 1.6
439 3 35.2 41.6 0.0
440 1 36.8 43.2 1.6
441 3 38.4 41.6 0.0
442 1 40.0 43.2 1.6
443 3 41.6 41.6 0.0
444 1 43.2 43.2 1.6
445 3 44.8 41.6 0.0
446 1 46.4 43.2 1.6
447 3 48.0 41.6 0.0
448 3 49.6 43.2 1.6
449 3 0.0 44.8 0.0
450 1 1.6 46.4 1.6
451 3 3.2 44.8 0.0
452 1 4.8 46.4 1.6
453 3 6.4 44.8 0.0
454 1 8.0 46.4 1.6
455 3 9.6 44.8 0.0
456 1 11.2 46.4 1.6
457 3 12.8 44.8 0.0
458 1 14.4 46.4 1.6
459 3 16.0 44.8 0.0
460 1 17.6 46.4 1.6
461 3 19.2 44.8 0.0
462 1 20.8 46.4 1.6
463 3 22.4 44.8 0.0
464 1 24.0 46.4 1.6
465 3 25.6 44.8 0.0
466 1 27.2 46.4 1.6
467 3 28.8 44.8 0.0
468 1 30.4 46.4 1.6
469 3 32.0 44.8 0.0
470 3 33.6 46.4 1.6
471 3 35.2 44.8 0.0
472 1 36.8 46.4 1.6
473 3 38.4 44.8 0.0
474 1 40.0 46.4 1.6
475 3 41.6 44.8 0.0
476 1 43.2 46.4 1.6
477 3 44.8 44.8 0.0
478 1 46.4 46.4 1.6
479 3 48.0 44.8 0.0
480 3 49.6 46.4 1.6
481 2 0.0 48.0 0.0
482 1 1.6 49.6 1.6
483 3 3.2 48.0 0.0
484 1 4.8 49.6 1.6
485 3 6.4 48.0 0.0
486 1 8.0 49.6 1.6
487 3 9.6 48.0 0.0
488 1 11.2 49.6 1.6
489 3 12.8 48.0 0.0
490 1 14.4 49.6 1.6
491 3 16.0 48.0 0.0
492 3 17.6 49.6 1.6
493 3 19.2 48.0 0.0
494 3 20.8 49.6 1.6
495 3 22.4 48.0 0.0
496 1 24.0 49.6 1.6
497 3 25.6 48.0 0.0
498 3 27.2 49.6 1.6
499 3 28.8 48.0 0.0
500 1 30.4 49.6 1.6
501 3 32.0 48.0 0.0
502 3 33.6 49.6 1.6
503 3 35.2 48.0 0.0
504 1 36.8 49.6 1.6
505 3 38.4 48.0 0.0
506 1 40.0 49.6 1.6
507 3 41.6 48.0 0.0
508 1 43.2 49.6 1.6
509 3 44.8 48.0 0.0
510 3 46.4 49.6 1.6
511 1 48.0 48.0 0.0
512 3 49.6 49.6 1.6
513 3 0.0 0.0 3.2
514 1 1.6 1.6 4.8
515 3 3.2 0.0 3.2
516 3 4.8 1.6 4.8
517 3 6.4 0.0 3.2
518 3 8.0 1.6 4.8
519 3 9.6 0.0 3.2
520 3 11.2 1.6 4.8
521 3 12.8 0.0 3.2
522 3 14.4 1.6 4.8
523 3 16.0 0.0 3.2
524 3 17.6 1.6 4.8
525 1 19.2 0.0 3.2
526 3 20.8 1.6 4.8
527 1 22.4 0.0 3.2
528 3 24.0 1.6 4.8
529 3 25.6 0.0 3.2
530 2 27.2 1.6 4.8
531 2 28.8 0.0 3.2
532 2 30.4 1.6 4.8
533 3 32.0 0.0 3.2
534 3 33.6 1.6 4.8
535 1 35.2 0.0 3.2
536 1 36.8 1.6 4.8
537 3 38.4 0.0 3.2
538 1 40.0 1.6 4.8
539 3 41.6 0.0 3.2
540 1 43.2 1.6 4.8
541 1 44.8 0.0 3.2
542 2 46.4 1.6 4.8
543 2 48.0 0.0 3.2
544 3 49.6 1.6 4.8
545 3 0.0 3.2 3.2
546 1 1.6 4.8 4.8
547 3 3.2 3.2 3.2
548 1 4.8 4.8 4.8
549 3 6.4 3.2 3.2
550 1 8.0 4.8 4.8
551 3 9.6 3.2 3.2
552 2 11.2 4.8 4.8
553 3 12.8 3.2 3.2
554 3 14.4 4.8 4.8
555 1 16.0 3.2 3.2
556 3 17.6 4.8 4.8
557 1 19.2 3.2 3.2
558 3 20.8 4.8 4.8
559 3 22.4 3.2 3.2
560 3 24.0 4.8 4.8
561 2 25.6 3.2 3.2
562 1 27.2 4.8 4.8
563 1 28.8 3.2 3.2
564 3 30.4 4.8 4.8
565 3 32.0 3.2 3.2
566 3 33.6 4.8 4.8
567 3 35.2 3.2 3.2
568 3 36.8 4.8 4.8
569 3 38.4 3.2 3.2
570 3 40.0 4.8 4.8
571 2 41.6 3.2 3.2
572 1 43.2 4.8 4.8
573 2 44.8 3.2 3.2
574 3 46.4 4.8 4.8
575 1 48.0 3.2 3.2
576 2 49.6 4.8 4.8
577 3 0.0 6.4 3.2
578 3 1.6 8.0 4.8
579 3 3.2 6.4 3.2
580 3 4.8 8.0 4.8
581 3 6.4 6.4 3.2
582 3 8.0 8.0 4.8
583 2 9.6 6.4 3.2
584 1 11.2 8.0 4.8
585 3 12.8 6.4 3.2
586 3 14.4 8.0 4.8
587 1 16.0 6.4 3.2
588 3 17.6 8.0 4.8
589 1 19.2 6.4 3.2
590 3 20.8 8.0 4.8
591 1 22.4 6.4 3.2
592 3 24.0 8.0 4.8
593 2 25.6 6.4 3.2
594 3 27.2 8.0 4.8
595 2 28.8 6.4 3.2
596 3 30.4 8.0 4.8
597 3 32.0 6.4 3.2
598 3 33.6 8.0 4.8
599 3 35.2 6.4 3.2
600 2 36.8 8.0 4.8
601 3 38.4 6.4 3.2
602 3 40.0 8.0 4.8
603 3 41.6 6.4 3.2
604 1 43.2 8.0 4.8
605 3 44.8 6.4 3.2
606 1 46.4 8.0 4.8
607 3 48.0 6.4 3.2
608 2 49.6 8.0 4.8
609 1 0.0 9.6 3.2
610 3 1.6 11.2 4.8
611 3 3.2 9.6 3.2
612 2 4.8 11.2 4.8
613 3 6.4 9.6 3.2
614 1 8.0 11.2 4.8
615 3 9.6 9.6 3.2
616 1 11.2 11.2 4.8
617 3 12.8 9.6 3.2
618 3 14.4 11.2 4.8
619 1 16.0 9.6 3.2
620 3 17.6 11.2 4.8
621 1 19.2 9.6 3.2
622 3 20.8 11.2 4.8
623 1 22.4 9.6 3.2
624 3 24.0 11.2 4.8
625 1 25.6 9.6 3.2
626 3 27.2 11.2 4.8
627 2 28.8 9.6 3.2
628 2 30.4 11.2 4.8
629 2 32.0 9.6 3.2
630 3 33.6 11.2 4.8
631 3 35.2 9.6 3.2
632 1 36.8 11.2 4.8
633 3 38.4 9.6 3.2
634 2 40.0 11.2 4.8
635 3 41.6 9.6 3.2
636 1 43.2 11.2 4.8
637 3 44.8 9.6 3.2
638 1 46.4 11.2 4.8
639 3 48.0 9.6 3.2
640 2 49.6 11.2 4.8
641 3 0.0 12.8 3.2
642 3 1.6 14.4 4.8
643 2 3.2 12.8 3.2
644 1 4.8 14.4 4.8
645 2 6.4 12.8 3.2
646 1 8.0 14.4 4.8
647 3 9.6 12.8 3.2
648 3 11.2 14.4 4.8
649 3 12.8 12.8 3.2
650 3 14.4 14.4 4.8
651 1 16.0 12.8 3.2
652 3 17.6 14.4 4.8
653 3 19.2 12.8 3.2
654 3 20.8 14.4 4.8
655 1 22.4 12.8 3.2
656 3 24.0 14.4 4.8
657 1 25.6 12.8 3.2
658 3 27.2 14.4 4.8
659 3 28.8 12.8 3.2
660 1 30.4 14.4 4.8
661 2 32.0 12.8 3.2
662 2 33.6 14.4 4.8
663 3 35.2 12.8 3.2
664 3 36.8 14.4 4.8
665 3 38.4 12.8 3.2
666 3 40.0 14.4 4.8
667 3 41.6 12.8 3.2
668 3 43.2 14.4 4.8
669 3 44.8 12.8 3.2
670 1 46.4 14.4 4.8
671 3 48.0 12.8 3.2
672 2 49.6 14.4 4.8
673 2 0.0 16.0 3.2
674 2 1.6 17.6 4.8
675 3 3.2 16.0 3.2
676 1 4.8 17.6 4.8
677 3 6.4 16.0 3.2
678 1 8.0 17.6 4.8
679 3 9.6 16.0 3.2
680 1 11.2 17.6 4.8
681 3 12.8 16.0 3.2
682 1 14.4 17.6 4.8
683 3 16.0 16.0 3.2
684 3 17.6 17.6 4.8
685 1 19.2 16.0 3.2
686 3 20.8 17.6 4.8
687 1 22.4 16.0 3.2
688 3 24.0 17.6 4.8
689 1 25.6 16.0 3.2
690 3 27.2 17.6 4.8
691 3 28.8 16.0 3.2
692 1 30.4 17.6 4.8
693 3 32.0 16.0 3.2
694 1 33.6 17.6 4.8
695 2 35.2 16.0 3.2
696 1 36.8 17.6 4.8
697 2 38.4 16.0 3.2
698 3 40.0 17.6 4.8
699 3 41.6 16.0 3.2
700 3 43.2 17.6 4.8
701 3 44.8 16.0 3.2
702 3 46.4 17.6 4.8
703 2 48.0 16.0 3.2
704 1 49.6 17.6 4.8
705 3 0.0 19.2 3.2
706 3 1.6 20.8 4.8
707 3 3.2 19.2 3.2
708 3 4.8 20.8 4.8
709 3 6.4 19.2 3.2
710 1 8.0 20.8 4.8
711 3 9.6 19.2 3.2
712 3 11.2 20.8 4.8
713 3 12.8 19.2 3.2
714 3 14.4 20.8 4.8
715 3 16.0 19.2 3.2
716 3 17.6 20.8 4.8
717 1 19.2 19.2 3.2
718 3 20.8 20.8 4.8
719 1 22.4 19.2 3.2
720 3 24.0 20.8 4.8
721 1 25.6 19.2 3.2
722 3 27.2 20.8 4.8
723 3 28.8 19.2 3.2
724 1 30.4 20.8 4.8
725 3 32.0 19.2 3.2
726 1 33.6 20.8 4.8
727 2 35.2 19.2 3.2
728 1 36.8 20.8 4.8
729 3 38.4 19.2 3.2
730 3 40.0 20.8 4.8
731 1 41.6 19.2 3.2
732 3 43.2 20.8 4.8
733 1 44.8 19.2 3.2
734 3 46.4 20.8 4.8
735 3 48.0 19.2 3.2
736 3 49.6 20.8 4.8
737 2 0.0 22.4 3.2
738 3 1.6 24.0 4.8
739 2 3.2 22.4 3.2
740 3 4.8 24.0 4.8
741 3 6.4 22.4 3.2
742 2 8.0 24.0 4.8
743 3 9.6 22.4 3.2
744 3 11.2 24.0 4.8
745 3 12.8 22.4 3.2
746 2 14.4 24.0 4.8
747 1 16.0 22.4 3.2
748 3 17.6 24.0 4.8
749 1 19.2 22.4 3.2
750 3 20.8 24.0 4.8
751 1 22.4 22.4 3.2
752 3 24.0 24.0 4.8
753 1 25.6 22.4 3.2
754 3 27.2 24.0 4.8
755 3 28.8 22.4 3.2
756 3 30.4 24.0 4.8
757 3 32.0 22.4 3.2
758 3 33.6 24.0 4.8
759 3 35.2 22.4 3.2
760 3 36.8 24.0 4.8
761 3 38.4 22.4 3.2
762 3 40.0 24.0 4.8
763 1 41.6 22.4 3.2
764 3 43.2 24.0 4.8
765 2 44.8 22.4 3.2
766 3 46.4 24.0 4.8
767 1 48.0 22.4 3.2
768 3 49.6 24.0 4.8
769 3 0.0 25.6 3.2
770 3 1.6 27.2 4.8
771 3 3.2 25.6 3.2
772 3 4.8 27.2 4.8
773 3 6.4 25.6 3.2
774 3 8.0 27.2 4.8
775 2 9.6 25.6 3.2
776 2 11.2 27.2 4.8
777 1 12.8 25.6 3.2
778 2 14.4 27.2 4.8
779 1 16.0 25.6 3.2
780 3 17.6 27.2 4.8
781 1 19.2 25.6 3.2
782 3 20.8 27.2 4.8
783 3 22.4 25.6 3.2
784 3 24.0 27.2 4.8
785 1 25.6 25.6 3.2
786 3 27.2 27.2 4.8
787 1 28.8 25.6 3.2
788 3 30.4 27.2 4.8
789 1 32.0 25.6 3.2
790 3 33.6 27.2 4.8
791 1 35.2 25.6 3.2
792 2 36.8 27.2 4.8
793 1 38.4 25.6 3.2
794 2 40.0 27.2 4.8
795 1 41.6 25.6 3.2
796 2 43.2 27.2 4.8
797 1 44.8 25.6 3.2
798 3 46.4 27.2 4.8
799 1 48.0 25.6 3.2
800 3 49.6 27.2 4.8
801 3 0.0 28.8 3.2
802 3 1.6 30.4 4.8
803 3 3.2 28.8 3.2
804 1 4.8 30.4 4.8
805 3 6.4 28.8 3.2
806 2 8.0 30.4 4.8
807 1 9.6 28.8 3.2
808 2 11.2 30.4 4.8
809 2 12.8 28.8 3.2
810 3 14.4 30.4 4.8
811 2 16.0 28.8 3.2
812 3 17.6 30.4 4.8
813 1 19.2 28.8 3.2
814 3 20.8 30.4 4.8
815 3 22.4 28.8 3.2
816 3 24.0 30.4 4.8
817 1 25.6 28.8 3.2
818 3 27.2 30.4 4.8
819 1 28.8 28.8 3.2
820 3 30.4 30.4 4.8
821 3 32.0 28.8 3.2
822 1 33.6 30.4 4.8
823 3 35.2 28.8 3.2
824 1 36.8 30.4 4.8
825 3 38.4 28.8 3.2
826 1 40.0 30.4 4.8
827 2 41.6 28.8 3.2
828 3 43.2 30.4 4.8
829 1 44.8 28.8 3.2
830 3 46.4 30.4 4.8
831 1 48.0 28.8 3.2
832 3 49.6 30.4 4.8
833 1 0.0 32.0 3.2
834 3 1.6 33.6 4.8
835 3 3.2 32.0 3.2
836 1 4.8 33.6 4.8
837 3 6.4 32.0 3.2
838 1 8.0 33.6 4.8
839 2 9.6 32.0 3.2
840 1 11.2 33.6 4.8
841 2 12.8 32.0 3.2
842 3 14.4 33.6 4.8
843 2 16.0 32.0 3.2
844 3 17.6 33.6 4.8
845 1 19.2 32.0 3.2
846 3 20.8 33.6 4.8
847 1 22.4 32.0 3.2
848 3 24.0 33.6 4.8
849 1 25.6 32.0 3.2
850 3 27.2 33.6 4.8
851 1 28.8 32.0 3.2
852 3 30.4 33.6 4.8
853 3 32.0 32.0 3.2
854 1 33.6 33.6 4.8
855 3 35.2 32.0 3.2
856 1 36.8 33.6 4.8
857 3 38.4 32.0 3.2
858 3 40.0 33.6 4.8
859 1 41.6 32.0 3.2
860 3 43.2 33.6 4.8
861 1 44.8 32.0 3.2
862 3 46.4 33.6 4.8
863 1 48.0 32.0 3.2
864 3 49.6 33.6 4.8
865 3 0.0 35.2 3.2
866 1 1.6 36.8 4.8
867 3 3.2 35.2 3.2
868 1 4.8 36.8 4.8
869 3 6.4 35.2 3.2
870 1 8.0 36.8 4.8
871 3 9.6 35.2 3.2
872 3 11.2 36.8 4.8
873 3 12.8 35.2 3.2
874 3 14.4 36.8 4.8
875 1 16.0 35.2 3.2
876 3 17.6 36.8 4.8
877 1 19.2 35.2 3.2
878 3 20.8 36.8 4.8
879 3 22.4 35.2 3.2
880 1 24.0 36.8 4.8
881 1 25.6 35.2 3.2
882 1 27.2 36.8 4.8
883 3 28.8 35.2 3.2
884 1 30.4 36.8 4.8
885 3 32.0 35.2 3.2
886 1 33.6 36.8 4.8
887 3 35.2 35.2 3.2
888 1 36.8 36.8 4.8
889 3 38.4 35.2 3.2
890 3 40.0 36.8 4.8
891 3 41.6 35.2 3.2
892 3 43.2 36.8 4.8
893 3 44.8 35.2 3.2
894 1 46.4 36.8 4.8
895 3 48.0 35.2 3.2
896 1 49.6 36.8 4.8
897 3 0.0 38.4 3.2
898 1 1.6 40.0 4.8
899 3 3.2 38.4 3.2
900 1 4.8 40.0 4.8
901 3 6.4 38.4 3.2
902 3 8.0 40.0 4.8
903 3 9.6 38.4 3.2
904 1 11.2 40.0 4.8
905 3 12.8 38.4 3.2
906 1 14.4 40.0 4.8
907 3 16.0 38.4 3.2
908 3 17.6 40.0 4.8
909 1 19.2 38.4 3.2
910 3 20.8 40.0 4.8
911 1 22.4 38.4 3.2
912 3 24.0 40.0 4.8
913 3 25.6 38.4 3.2
914 1 27.2 40.0 4.8
915 3 28.8 38.4 3.2
916 1 30.4 40.0 4.8
917 3 32.0 38.4 3.2
918 1 33.6 40.0 4.8
919 3 35.2 38.4 3.2
920 3 36.8 40.0 4.8
921 3 38.4 38.4 3.2
922 3 40.0 40.0 4.8
923 3 41.6 38.4 3.2
924 3 43.2 40.0 4.8
925 3 44.8 38.4 3.2
926 1 46.4 40.0 4.8
927 3 48.0 38.4 3.2
928 1 49.6 40.0 4.8
929 3 0.0 41.6 3.2
930 1 1.6 43.2 4.8
931 3 3.2 41.6 3.2
932 1 4.8 43.2 4.8
933 3 6.4 41.6 3.2
934 3 8.0 43.2 4.8
935 2 9.6 41.6 3.2
936 3 11.2 43.2 4.8
937 2 12.8 41.6 3.2
938 3 14.4 43.2 4.8
939 2 16.0 41.6 3.2
940 1 17.6 43.2 4.8
941 1 19.2 41.6 3.2
942 3 20.8 43.2 4.8
943 1 22.4 41.6 3.2
944 2 24.0 43.2 4.8
945 3 25.6 41.6 3.2
946 1 27.2 43.2 4.8
947 3 28.8 41.6 3.2
948 1 30.4 43.2 4.8
949 3 32.0 41.6 3.2
950 2 33.6 43.2 4.8
951 3 35.2 41.6 3.2
952 1 36.8 43.2 4.8
953 3 38.4 41.6 3.2
954 1 40.0 43.2 4.8
955 3 41.6 41.6 3.2
956 1 43.2 43.2 4.8
957 3 44.8 41.6 3.2
958 1 46.4 43.2 4.8
959 3 48.0 41.6 3.2
960 1 49.6 43.2 4.8
961 3 0.0 44.8 3.2
962 1 1.6 46.4 4.8
963 3 3.2 44.8 3.2
964 1 4.8 46.4 4.8
965 3 6.4 44.8 3.2
966 1 8.0 46.4 4.8
967 3 9.6 44.8 3.2
968 1 11.2 46.4 4.8
969 3 12.8 44.8 3.2
970 1 14.4 46.4 4.8
971 3 16.0 44.8 3.2
972 1 17.6 46.4 4.8
973 3 19.2 44.8 3.2
974 1 20.8 46.4 4.8
975 3 22.4 44.8 3.2
976 1 24.0 46.4 4.8
977 3 25.6 44.8 3.2
978 1 27.2 46.4 4.8
979 3 28.8 44.8 3.2
980 1 30.4 46.4 4.8
981 3 32.0 44.8 3.2
982 1 33.6 46.4 4.8
983 3 35.2 44.8 3.2
984 1 36.8 46.4 4.8
985 3 38.4 44.8 3.2
986 3 40.0 46.4 4.8
987 3 41.6 44.8 3.2
988 3 43.2 46.4 4.8
989 3 44.8 44.8 3.2
990 1 46.4 46.4 4.8
991 3 48.0 44.8 3.2
992 3 49.6 46.4 4.8
993 3 0.0 48.0 3.2
994 1 1.6 49.6 4.8
995 3 3.2 48.0 3.2
996 3 4.8 49.6 4.8
997 3 6.4 48.0 3.2
998 1 8.0 49.6 4.8
999 3 9.6 48.0 3.2
1000 1 11.2 49.6 4.8
1001 3 12.8 48.0 3.2
1002 1 14.4 49.6 4.8
1003 3 16.0 48.0 3.2
1004 2 17.6 49.6 4.8
1005 3 19.2 48.0 3.2
1006 2 20.8 49.6 4.8
1007 3 22.4 48.0 3.2
1008 1 24.0 49.6 4.8
1009 3 25.6 48.0 3.2
1010 1 27.2 49.6 4.8
1011 3 28.8 48.0 3.2
1012 3 30.4 49.6 4.8
1013 3 32.0 48.0 3.2
1014 3 33.6 49.6 4.8
1015 3 35.2 48.0 3.2
1016 3 36.8 49.6 4.8
1017 3 38.4 48.0 3.2
1018 1 40.0 49.6 4.8
1019 2 41.6 48.0 3.2
1020 1 43.2 49.6 4.8
1021 3 44.8 48.0 3.2
1022 3 46.4 49.6 4.8
1023 3 48.0 48.0 3.2
1024 1 49.6 49.6 4.8
1025 3 0.0 0.0 6.4
1026 1 1.6 1.6 8.0
1027 3 3.2 0.0 6.4
1028 3 4.8 1.6 8.0
1029 3 6.4 0.0 6.4
1030 1 8.0 1.6 8.0
1031 3 9.6 0.0 6.4
1032 1 11.2 1.6 8.0
1033 3 12.8 0.0 6.4
1034 1 14.4 1.6 8.0
1035 3 16.0 0.0 6.4
1036 1 17.6 1.6 8.0
1037 3 19.2 0.0 6.4
1038 1 20.8 1.6 8.0
1039 3 22.4 0.0 6.4
1040 3 24.0 1.6 8.0
1041 3 25.6 0.0 6.4
1042 3 27.2 1.6 8.0
1043 3 28.8 0.0 6.4
1044 1 30.4 1.6 8.0
1045 3 32.0 0.0 6.4
1046 1 33.6 1.6 8.0
1047 3 35.2 0.0 6.4
1048 1 36.8 1.6 8.0
1049 3 38.4 0.0 6.4
1050 1 40.0 1.6 8.0
1051 3 41.6 0.0 6.4
1052 3 43.2 1.6 8.0
1053 3 44.8 0.0 6.4
1054 1 46.4 1.6 8.0
1055 3 48.0 0.0 6.4
1056 3 49.6 1.6 8.0
1057 3 0.0 3.2 6.4
1058 1 1.6 4.8 8.0
1059 3 3.2 3.2 6.4
1060 1 4.8 4.8 8.0
1061 3 6.4 3.2 6.4
1062 1 8.0 4.8 8.0
1063 3 9.6 3.2 6.4
1064 1 11.2 4.8 8.0
1065 3 12.8 3.2 6.4
1066 3 14.4 4.8 8.0
1067 3 16.0 3.2 6.4
1068 3 17.6 4.8 8.0
1069 3 19.2 3.2 6.4
1070 3 20.8 4.8 8.0
1071 3 22.4 3.2 6.4
1072 3 24.0 4.8 8.0
1073 1 25.6 3.2 6.4
1074 3 27.2 4.8 8.0
1075 3 28.8 3.2 6.4
1076 1 30.4 4.8 8.0
1077 3 32.0 3.2 6.4
1078 3 33.6 4.8 8.0
1079 3 35.2 3.2 6.4
1080 3 36.8 4.8 8.0
1081 3 38.4 3.2 6.4
1082 3 40.0 4.8 8.0
1083 3 41.6 3.2 6.4
1084 3 43.2 4.8 8.0
1085 3 44.8 3.2 6.4
1086 2 46.4 4.8 8.0
1087 2 48.0 3.2 6.4
1088 3 49.6 4.8 8.0
1089 3 0.0 6.4 6.4
1090 2 1.6 8.0 8.0
1091 2 3.2 6.4 6.4
1092 3 4.8 8.0 8.0
1093 3 6.4 6.4 6.4
1094 3 8.0 8.0 8.0
1095 3 9.6 6.4 6.4
1096 1 11.2 8.0 8.0
1097 3 12.8 6.4 6.4
1098 3 14.4 8.0 8.0
1099 1 16.0 6.4 6.4
1100 3 17.6 8.0 8.0
1101 1 19.2 6.4 6.4
1102 3 20.8 8.0 8.0
1103 1 22.4 6.4 6.4
1104 3 24.0 8.0 8.0
1105 1 25.6 6.4 6.4
1106 3 27.2 8.0 8.0
1107 3 28.8 6.4 6.4
1108 3 30.4 8.0 8.0
1109 3 32.0 6.4 6.4
1110 3 33.6 8.0 8.0
1111 1 35.2 6.4 6.4
1112 3 36.8 8.0 8.0
1113 1 38.4 6.4 6.4
1114 3 40.0 8.0 8.0
1115 3 41.6 6.4 6.4
1116 3 43.2 8.0 8.0
1117 3 44.8 6.4 6.4
1118 3 46.4 8.0 8.0
1119 1 48.0 6.4 6.4
1120 3 49.6 8.0 8.0
1121 1 0.0 9.6 6.4
1122 3 1.6 11.2 8.0
1123 1 3.2 9.6 6.4
1124 2 4.8 11.2 8.0
1125 1 6.4 9.6 6.4
1126 3 8.0 11.2 8.0
1127 3 9.6 9.6 6.4
1128 3 11.2 11.2 8.0
1129 2 12.8 9.6 6.4
1130 3 14.4 11.2 8.0
1131 1 16.0 9.6 6.4
1132 3 17.6 11.2 8.0
1133 1 19.2 9.6 6.4
1134 3 20.8 11.2 8.0
1135 1 22.4 9.6 6.4
1136 3 24.0 11.2 8.0
1137 1 25.6 9.6 6.4
1138 3 27.2 11.2 8.0
1139 1 28.8 9.6 6.4
1140 3 30.4 11.2 8.0
1141 1 32.0 9.6 6.4
1142 2 33.6 11.2 8.0
1143 1 35.2 9.6 6.4
1144 1 36.8 11.2 8.0
1145 1 38.4 9.6 6.4
1146 3 40.0 11.2 8.0
1147 3 41.6 9.6 6.4
1148 3 43.2 11.2 8.0
1149 3 44.8 9.6 6.4
1150 3 46.4 11.2 8.0
1151 3 48.0 9.6 6.4
1152 3 49.6 11.2 8.0
1153 1 0.0 12.8 6.4
1154 3 1.6 14.4 8.0
1155 3 3.2 12.8 6.4
1156 1 4.8 14.4 8.0
1157 3 6.4 12.8 6.4
1158 1 8.0 14.4 8.0
1159 3 9.6 12.8 6.4
1160 3 11.2 14.4 8.0
1161 3 12.8 12.8 6.4
1162 3 14.4 14.4 8.0
1163 1 16.0 12.8 6.4
1164 1 17.6 14.4 8.0
1165 3 19.2 12.8 6.4
1166 1 20.8 14.4 8.0
1167 3 22.4 12.8 6.4
1168 3 24.0 14.4 8.0
1169 3 25.6 12.8 6.4
1170 2 27.2 14.4 8.0
1171 2 28.8 12.8 6.4
1172 1 30.4 14.4 8.0
1173 3 32.0 12.8 6.4
1174 1 33.6 14.4 8.0
1175 3 35.2 12.8 6.4
1176 1 36.8 14.4 8.0
1177 3 38.4 12.8 6.4
1178 3 40.0 14.4 8.0
1179 1 41.6 12.8 6.4
1180 3 43.2 14.4 8.0
1181 3 44.8 12.8 6.4
1182 1 46.4 14.4 8.0
1183 3 48.0 12.8 6.4
1184 3 49.6 14.4 8.0
1185 3 0.0 16.0 6.4
1186 1 1.6 17.6 8.0
1187 3 3.2 16.0 6.4
1188 1 4.8 17.6 8.0
1189 3 6.4 16.0 6.4
1190 3 8.0 17.6 8.0
1191 3 9.6 16.0 6.4
1192 1 11.2 17.6 8.0
1193 3 12.8 16.0 6.4
1194 1 14.4 17.6 8.0
1195 3 16.0 16.0 6.4
1196 1 17.6 17.6 8.0
1197 3 19.2 16.0 6.4
1198 3 20.8 17.6 8.0
1199 1 22.4 16.0 6.4
1200 3 24.0 17.6 8.0
1201 1 25.6 16.0 6.4
1202 3 27.2 17.6 8.0
1203 3 28.8 16.0 6.4
1204 1 30.4 17.6 8.0
1205 3 32.0 16.0 6.4
1206 1 33.6 17.6 8.0
1207 3 35.2 16.0 6.4
1208 2 36.8 17.6 8.0
1209 3 38.4 16.0 6.4
1210 3 40.0 17.6 8.0
1211 2 41.6 16.0 6.4
1212 3 43.2 17.6 8.0
1213 3 44.8 16.0 6.4
1214 1 46.4 17.6 8.0
1215 3 48.0 16.0 6.4
1216 1 49.6 17.6 8.0
1217 2 0.0 19.2 6.4
1218 1 1.6 20.8 8.0
1219 3 3.2 19.2 6.4
1220 1 4.8 20.8 8.0
1221 3 6.4 19.2 6.4
1222 1 8.0 20.8 8.0
1223 3 9.6 19.2 6.4
1224 1 11.2 20.8 8.0
1225 3 12.8 19.2 6.4
1226 1 14.4 20.8 8.0
1227 3 16.0 19.2 6.4
1228 1 17.6 20.8 8.0
1229 3 19.2 19.2 6.4
1230 3 20.8 20.8 8.0
1231 1 22.4 19.2 6.4
1232 3 24.0 20.8 8.0
1233 1 25.6 19.2 6.4
1234 3 27.2 20.8 8.0
1235 3 28.8 19.2 6.4
1236 1 30.4 20.8 8.0
1237 3 32.0 19.2 6.4
1238 1 33.6 20.8 8.0
1239 3 35.2 19.2 6.4
1240 3 36.8 20.8 8.0
1241 3 38.4 19.2 6.4
1242 3 40.0 20.8 8.0
1243 1 41.6 19.2 6.4
1244 3 43.2 20.8 8.0
1245 1 44.8 19.2 6.4
1246 3 46.4 20.8 8.0
1247 3 48.0 19.2 6.4
1248 3 49.6 20.8 8.0
1249 1 0.0 22.4 6.4
1250 3 1.6 24.0 8.0
1251 1 3.2 22.4 6.4
1252 3 4.8 24.0 8.0
1253 3 6.4 22.4 6.4
1254 3 8.0 24.0 8.0
1255 3 9.6 22.4 6.4
1256 3 11.2 24.0 8.0
1257 3 12.8 22.4 6.4
1258 1 14.4 24.0 8.0
1259 3 16.0 22.4 6.4
1260 1 17.6 24.0 8.0
1261 3 19.2 22.4 6.4
1262 3 20.8 24.0 8.0
1263 1 22.4 22.4 6.4
1264 3 24.0 24.0 8.0
1265 1 25.6 22.4 6.4
1266 3 27.2 24.0 8.0
1267 3 28.8 22.4 6.4
1268 1 30.4 24.0 8.0
1269 3 32.0 22.4 6.4
1270 1 33.6 24.0 8.0
1271 3 35.2 22.4 6.4
1272 1 36.8 24.0 8.0
1273 3 38.4 22.4 6.4
1274 3 40.0 24.0 8.0
1275 1 41.6 22.4 6.4
1276 3 43.2 24.0 8.0
1277 1 44.8 22.4 6.4
1278 3 46.4 24.0 8.0
1279 1 48.0 22.4 6.4
1280 3 49.6 24.0 8.0
1281 1 0.0 25.6 6.4
1282 3 1.6 27.2 8.0
1283 1 3.2 25.6 6.4
1284 3 4.8 27.2 8.0
1285 2 6.4 25.6 6.4
1286 3 8.0 27.2 8.0
1287 1 9.6 25.6 6.4
1288 2 11.2 27.2 8.0
1289 3 12.8 25.6 6.4
1290 1 14.4 27.2 8.0
1291 3 16.0 25.6 6.4
1292 3 17.6 27.2 8.0
1293 2 19.2 25.6 6.4
1294 3 20.8 27.2 8.0
1295 1 22.4 25.6 6.4
1296 3 24.0 27.2 8.0
1297 1 25.6 25.6 6.4
1298 3 27.2 27.2 8.0
1299 3 28.8 25.6 6.4
1300 1 30.4 27.2 8.0
1301 3 32.0 25.6 6.4
1302 1 33.6 27.2 8.0
1303 3 35.2 25.6 6.4
1304 1 36.8 27.2 8.0
1305 2 38.4 25.6 6.4
1306 1 40.0 27.2 8.0
1307 2 41.6 25.6 6.4
1308 3 43.2 27.2 8.0
1309 1 44.8 25.6 6.4
1310 2 46.4 27.2 8.0
1311 1 48.0 25.6 6.4
1312 3 49.6 27.2 8.0
1313 1 0.0 28.8 6.4
1314 3 1.6 30.4 8.0
1315 3 3.2 28.8 6.4
1316 3 4.8 30.4 8.0
1317 1 6.4 28.8 6.4
1318 3 8.0 30.4 8.0
1319 1 9.6 28.8 6.4
1320 2 11.2 30.4 8.0
1321 3 12.8 28.8 6.4
1322 1 14.4 30.4 8.0
1323 3 16.0 28.8 6.4
1324 3 17.6 30.4 8.0
1325 1 19.2 28.8 6.4
1326 3 20.8 30.4 8.0
1327 3 22.4 28.8 6.4
1328 3 24.0 30.4 8.0
1329 1 25.6 28.8 6.4
1330 2 27.2 30.4 8.0
1331 2 28.8 28.8 6.4
1332 3 30.4 30.4 8.0
1333 3 32.0 28.8 6.4
1334 1 33.6 30.4 8.0
1335 3 35.2 28.8 6.4
1336 2 36.8 30.4 8.0
1337 3 38.4 28.8 6.4
1338 3 40.0 30.4 8.0
1339 3 41.6 28.8 6.4
1340 3 43.2 30.4 8.0
1341 1 44.8 28.8 6.4
1342 3 46.4 30.4 8.0
1343 1 48.0 28.8 6.4
1344 3 49.6 30.4 8.0
1345 3 0.0 32.0 6.4
1346 1 1.6 33.6 8.0
1347 3 3.2 32.0 6.4
1348 1 4.8 33.6 8.0
1349 3 6.4 32.0 6.4
1350 1 8.0 33.6 8.0
1351 3 9.6 32.0 6.4
1352 1 11.2 33.6 8.0
1353 3 12.8 32.0 6.4
1354 1 14.4 33.6 8.0
1355 3 16.0 32.0 6.4
1356 3 17.6 33.6 8.0
1357 1 19.2 32.0 6.4
1358 3 20.8 33.6 8.0
1359 3 22.4 32.0 6.4
1360 1 24.0 33.6 8.0
1361 2 25.6 32.0 6.4
1362 3 27.2 33.6 8.0
1363 1 28.8 32.0 6.4
1364 3 30.4 33.6 8.0
1365 3 32.0 32.0 6.4
1366 1 33.6 33.6 8.0
1367 3 35.2 32.0 6.4
1368 3 36.8 33.6 8.0
1369 3 38.4 32.0 6.4
1370 3 40.0 33.6 8.0
1371 3 41.6 32.0 6.4
1372 1 43.2 33.6 8.0
1373 3 44.8 32.0 6.4
1374 3 46.4 33.6 8.0
1375 1 48.0 32.0 6.4
1376 1 49.6 33.6 8.0
1377 3 0.0 35.2 6.4
1378 1 1.6 36.8 8.0
1379 3 3.2 35.2 6.4
1380 1 4.8 36.8 8.0
1381 3 6.4 35.2 6.4
1382 3 8.0 36.8 8.0
1383 3 9.6 35.2 6.4
1384 1 11.2 36.8 8.0
1385 3 12.8 35.2 6.4
1386 3 14.4 36.8 8.0
1387 1 16.0 35.2 6.4
1388 3 17.6 36.8 8.0
1389 1 19.2 35.2 6.4
1390 3 20.8 36.8 8.0
1391 3 22.4 35.2 6.4
1392 3 24.0 36.8 8.0
1393 3 25.6 35.2 6.4
1394 3 27.2 36.8 8.0
1395 1 28.8 35.2 6.4
1396 3 30.4 36.8 8.0
1397 3 32.0 35.2 6.4
1398 1 33.6 36.8 8.0
1399 3 35.2 35.2 6.4
1400 3 36.8 36.8 8.0
1401 3 38.4 35.2 6.4
1402 3 40.0 36.8 8.0
1403 3 41.6 35.2 6.4
1404 1 43.2 36.8 8.0
1405 3 44.8 35.2 6.4
1406 1 46.4 36.8 8.0
1407 3 48.0 35.2 6.4
1408 1 49.6 36.8 8.0
1409 3 0.0 38.4 6.4
1410 2 1.6 40.0 8.0
1411 3 3.2 38.4 6.4
1412 1 4.8 40.0 8.0
1413 3 6.4 38.4 6.4
1414 1 8.0 40.0 8.0
1415 3 9.6 38.4 6.4
1416 1 11.2 40.0 8.0
1417 3 12.8 38.4 6.4
1418 3 14.4 40.0 8.0
1419 1 16.0 38.4 6.4
1420 3 17.6 40.0 8.0
1421 2 19.2 38.4 6.4
1422 3 20.8 40.0 8.0
1423 1 22.4 38.4 6.4
1424 2 24.0 40.0 8.0
1425 3 25.6 38.4 6.4
1426 3 27.2 40.0 8.0
1427 3 28.8 38.4 6.4
1428 1 30.4 40.0 8.0
1429 3 32.0 38.4 6.4
1430 1 33.6 40.0 8.0
1431 3 35.2 38.4 6.4
1432 1 36.8 40.0 8.0
1433 2 38.4 38.4 6.4
1434 3 40.0 40.0 8.0
1435 2 41.6 38.4 6.4
1436 1 43.2 40.0 8.0
1437 3 44.8 38.4 6.4
1438 1 46.4 40.0 8.0
1439 3 48.0 38.4 6.4
1440 1 49.6 40.0 8.0
1441 3 0.0 41.6 6.4
1442 2 1.6 43.2 8.0
1443 3 3.2 41.6 6.4
1444 2 4.8 43.2 8.0
1445 3 6.4 41.6 6.4
1446 1 8.0 43.2 8.0
1447 3 9.6 41.6 6.4
1448 1 11.2 43.2 8.0
1449 3 12.8 41.6 6.4
1450 1 14.4 43.2 8.0
1451 3 16.0 41.6 6.4
1452 3 17.6 43.2 8.0
1453 1 19.2 41.6 6.4
1454 3 20.8 43.2 8.0
1455 3 22.4 41.6 6.4
1456 3 24.0 43.2 8.0
1457 2 25.6 41.6 6.4
1458 3 27.2 43.2 8.0
1459 3 28.8 41.6 6.4
1460 3 30.4 43.2 8.0
1461 3 32.0 41.6 6.4
1462 1 33.6 43.2 8.0
1463 3 35.2 41.6 6.4
1464 1 36.8 43.2 8.0
1465 3 38.4 41.6 6.4
1466 1 40.0 43.2 8.0
1467 3 41.6 41.6 6.4
1468 1 43.2 43.2 8.0
1469 3 44.8 41.6 6.4
1470 1 46.4 43.2 8.0
1471 3 48.0 41.6 6.4
1472 1 49.6 43.2 8.0
1473 3 0.0 44.8 6.4
1474 3 1.6 46.4 8.0
1475 3 3.2 44.8 6.4
1476 3 4.8 46.4 8.0
1477 3 6.4 44.8 6.4
1478 1 8.0 46.4 8.0
1479 2 9.6 44.8 6.4
1480 1 11.2 46.4 8.0
1481 3 12.8 44.8 6.4
1482 1 14.4 46.4 8.0
1483 3 16.0 44.8 6.4
1484 2 17.6 46.4 8.0
1485 3 19.2 44.8 6.4
1486 1 20.8 46.4 8.0
1487 3 22.4 44.8 6.4
1488 1 24.0 46.4 8.0
1489 3 25.6 44.8 6.4
1490 1 27.2 46.4 8.0
1491 3 28.8 44.8 6.4
1492 1 30.4 46.4 8.0
1493 3 32.0 44.8 6.4
1494 1 33.6 46.4 8.0
1495 3 35.2 44.8 6.4
1496 1 36.8 46.4 8.0
1497 3 38.4 44.8 6.4
1498 1 40.0 46.4 8.0
1499 3 41.6 44.8 6.4
1500 1 43.2 46.4 8.0