ITEM: TIMESTEP
0
ITEM: NUMBER OF ATOMS
8192
ITEM: BOX BOUNDS pp pp pp
0.0000000000000000e+00 5.1200000000000003e+01
0.0000000000000000e+00 5.1200000000000003e+01
0.0000000000000000e+00 5.1200000000000003e+01
ITEM: ATOMS id type x y z c_eng
1 3 0 0 0 -11.4497
2 1 1.6 1.6 1.6 -11.8774
3 3 3.2 0 0 -11.2417
4 1 4.8 1.6 1.6 -11.8774
5 3 6.4 0 0 -11.4892
6 3 8 1.6 1.6 -11.4752
7 3 9.6 0 0 -11.521
8 1 11.2 1.6 1.6 -11.9279
9 3 12.8 0 0 -11.4713
10 3 14.4 1.6 1.6 -11.4678
11 3 16 0 0 -11.4778
12 2 17.6 1.6 1.6 -9.91746
13 3 19.2 0 0 -11.467
14 1 20.8 1.6 1.6 -11.875
15 3 22.4 0 0 -11.2417
16 1 24 1.6 1.6 -11.9114
17 3 25.6 0 0 -11.3902
18 1 27.2 1.6 1.6 -11.9116
19 3 28.8 0 0 -11.5349
20 1 30.4 1.6 1.6 -11.9106
21 3 32 0 0 -11.5563
22 3 33.6 1.6 1.6 -11.5003
23 2 35.2 0 0 -9.98736
24 1 36.8 1.6 1.6 -11.8919
25 3 38.4 0 0 -11.3592
26 1 40 1.6 1.6 -11.8616
27 3 41.6 0 0 -11.4325
28 2 43.2 1.6 1.6 -9.97014
29 3 44.8 0 0 -11.5219
30 2 46.4 1.6 1.6 -9.93402
31 1 48 0 0 -11.9626
32 3 49.6 1.6 1.6 -11.4842
33 3 0 3.2 0 -11.479
34 1 1.6 4.8 1.6 -11.8519
35 3 3.2 3.2 0 -11.3384
36 1 4.8 4.8 1.6 -11.9453
37 3 6.4 3.2 0 -11.6067
38 3 8 4.8 1.6 -11.4457
39 3 9.6 3.2 0 -11.4799
40 1 11.2 4.8 1.6 -11.9034
41 3 12.8 3.2 0 -11.5814
42 3 14.4 4.8 1.6 -11.4785
43 1 16 3.2 0 -11.9275
44 3 17.6 4.8 1.6 -11.3838
45 3 19.2 3.2 0 -11.4391
46 3 20.8 4.8 1.6 -11.4309
47 3 22.4 3.2 0 -11.4154
48 3 24 4.8 1.6 -11.479
49 3 25.6 3.2 0 -11.4311
50 1 27.2 4.8 1.6 -11.9118
51 3 28.8 3.2 0 -11.412
52 1 30.4 4.8 1.6 -11.8769
53 3 32 3.2 0 -11.477
54 1 33.6 4.8 1.6 -11.9118
55 3 35.2 3.2 0 -11.4644
56 1 36.8 4.8 1.6 -11.9118
57 3 38.4 3.2 0 -11.3857
58 3 40 4.8 1.6 -11.3993
59 1 41.6 3.2 0 -11.8388
60 3 43.2 4.8 1.6 -11.4843
61 1 44.8 3.2 0 -11.8909
62 3 46.4 4.8 1.6 -11.5183
63 1 48 3.2 0 -11.9085
64 3 49.6 4.8 1.6 -11.5429
65 3 0 6.4 0 -11.4037
66 1 1.6 8 1.6 -11.7563
67 3 3.2 6.4 0 -11.3501
68 3 4.8 8 1.6 -11.4599
69 3 6.4 6.4 0 -11.5126
70 3 8 8 1.6 -11.5512
71 1 9.6 6.4 0 -11.9068
72 3 11.2 8 1.6 -11.4383
73 3 12.8 6.4 0 -11.4019
74 3 14.4 8 1.6 -11.4899
75 1 16 6.4 0 -11.8907
76 3 17.6 8 1.6 -11.3862
77 3 19.2 6.4 0 -11.4959
78 3 20.8 8 1.6 -11.4791
79 3 22.4 6.4 0 -11.4789
80 3 24 8 1.6 -11.495
81 3 25.6 6.4 0 -11.4665
82 1 27.2 8 1.6 -11.9287
83 3 28.8 6.4 0 -11.415
84 1 30.4 8 1.6 -11.9019
85 3 32 6.4 0 -11.3389
86 1 33.6 8 1.6 -11.877
87 3 35.2 6.4 0 -11.2414
88 1 36.8 8 1.6 -11.877
89 3 38.4 6.4 0 -11.3392
90 1 40 8 1.6 -11.8794
91 3 41.6 6.4 0 -11.3778
92 1 43.2 8 1.6 -11.9225
93 3 44.8 6.4 0 -11.5377
94 3 46.4 8 1.6 -11.4137
95 3 48 6.4 0 -11.5662
96 2 49.6 8 1.6 -9.95234
97 2 0 9.6 0 -9.88842
98 3 1.6 11.2 1.6 -11.3424
99 1 3.2 9.6 0 -11.7709
100 3 4.8 11.2 1.6 -11.5081
101 2 6.4 9.6 0 -9.88761
102 3 8 11.2 1.6 -11.519
103 1 9.6 9.6 0 -11.9019
104 3 11.2 11.2 1.6 -11.4501
105 1 12.8 9.6 0 -11.9122
106 3 14.4 11.2 1.6 -11.415
107 1 16 9.6 0 -11.8926
108 3 17.6 11.2 1.6 -11.3384
109 3 19.2 9.6 0 -11.4643
110 3 20.8 11.2 1.6 -11.4147
111 3 22.4 9.6 0 -11.5115
112 3 24 11.2 1.6 -11.5152
113 3 25.6 9.6 0 -11.5432
114 3 27.2 11.2 1.6 -11.5144
115 3 28.8 9.6 0 -11.4871
116 2 30.4 11.2 1.6 -9.92589
117 3 32 9.6 0 -11.3606
118 1 33.6 11.2 1.6 -11.9024
119 3 35.2 9.6 0 -11.2417
120 1 36.8 11.2 1.6 -11.8666
121 3 38.4 9.6 0 -11.2033
122 1 40 11.2 1.6 -11.917
123 2 41.6 9.6 0 -9.87645
124 3 43.2 11.2 1.6 -11.4489
125 3 44.8 9.6 0 -11.4462
126 1 46.4 11.2 1.6 -11.939
127 3 48 9.6 0 -11.489
128 2 49.6 11.2 1.6 -9.95858
129 1 0 12.8 0 -11.8507
130 2 1.6 14.4 1.6 -9.90988
131 1 3.2 12.8 0 -11.8627
132 3 4.8 14.4 1.6 -11.4852
133 1 6.4 12.8 0 -11.9388
134 3 8 14.4 1.6 -11.4682
135 1 9.6 12.8 0 -11.8803
136 2 11.2 14.4 1.6 -9.95824
137 1 12.8 12.8 0 -11.8812
138 3 14.4 14.4 1.6 -11.4511
139 1 16 12.8 0 -11.8667
140 3 17.6 14.4 1.6 -11.3652
141 1 19.2 12.8 0 -11.8775
142 3 20.8 14.4 1.6 -11.2414
143 1 22.4 12.8 0 -11.9021
144 3 24 14.4 1.6 -11.3909
145 2 25.6 12.8 0 -9.97588
146 3 27.2 14.4 1.6 -11.4382
147 2 28.8 12.8 0 -9.97256
148 1 30.4 14.4 1.6 -11.859
149 2 32 12.8 0 -9.9198
150 2 33.6 14.4 1.6 -9.8838
151 3 35.2 12.8 0 -11.2732
152 1 36.8 14.4 1.6 -11.9052
153 3 38.4 12.8 0 -11.4152
154 3 40 14.4 1.6 -11.5113
155 3 41.6 12.8 0 -11.5406
156 3 43.2 14.4 1.6 -11.5804
157 3 44.8 12.8 0 -11.5894
158 1 46.4 14.4 1.6 -11.9349
159 3 48 12.8 0 -11.4534
160 1 49.6 14.4 1.6 -11.806
161 3 0 16 0 -11.3977
162 1 1.6 17.6 1.6 -11.8773
163 3 3.2 16 0 -11.4363
164 1 4.8 17.6 1.6 -11.8763
165 3 6.4 16 0 -11.486
166 1 8 17.6 1.6 -11.8923
167 2 9.6 16 0 -9.9483
168 1 11.2 17.6 1.6 -11.8314
169 2 12.8 16 0 -9.90725
170 1 14.4 17.6 1.6 -11.8042
171 2 16 16 0 -9.83901
172 3 17.6 17.6 1.6 -11.3849
173 1 19.2 16 0 -11.928
174 3 20.8 17.6 1.6 -11.3384
175 1 22.4 16 0 -11.8774
176 3 24 17.6 1.6 -11.3381
177 3 25.6 16 0 -11.4255
178 3 27.2 17.6 1.6 -11.5192
179 3 28.8 16 0 -11.4967
180 1 30.4 17.6 1.6 -11.9215
181 3 32 16 0 -11.5021
182 3 33.6 17.6 1.6 -11.4872
183 3 35.2 16 0 -11.4657
184 1 36.8 17.6 1.6 -11.9163
185 3 38.4 16 0 -11.4501
186 3 40 17.6 1.6 -11.4798
187 1 41.6 16 0 -11.9489
188 3 43.2 17.6 1.6 -11.4396
189 3 44.8 16 0 -11.5115
190 2 46.4 17.6 1.6 -9.97614
191 3 48 16 0 -11.5186
192 1 49.6 17.6 1.6 -11.9018
193 3 0 19.2 0 -11.5371
194 3 1.6 20.8 1.6 -11.5363
195 3 3.2 19.2 0 -11.4899
196 1 4.8 20.8 1.6 -11.9501
197 3 6.4 19.2 0 -11.4648
198 1 8 20.8 1.6 -11.8765
199 3 9.6 19.2 0 -11.4198
200 1 11.2 20.8 1.6 -11.8918
201 2 12.8 19.2 0 -9.91753
202 3 14.4 20.8 1.6 -11.4158
203 1 16 19.2 0 -11.88
204 3 17.6 20.8 1.6 -11.402
205 3 19.2 19.2 0 -11.3354
206 3 20.8 20.8 1.6 -11.3381
207 1 22.4 19.2 0 -11.9031
208 3 24 20.8 1.6 -11.2417
209 1 25.6 19.2 0 -11.913
210 3 27.2 20.8 1.6 -11.4498
211 3 28.8 19.2 0 -11.4771
212 1 30.4 20.8 1.6 -11.934
213 3 32 19.2 0 -11.5206
214 1 33.6 20.8 1.6 -11.9496
215 3 35.2 19.2 0 -11.461
216 1 36.8 20.8 1.6 -11.9104
217 3 38.4 19.2 0 -11.459
218 3 40 20.8 1.6 -11.4649
219 1 41.6 19.2 0 -11.9068
220 3 43.2 20.8 1.6 -11.3386
221 2 44.8 19.2 0 -9.93615
222 2 46.4 20.8 1.6 -9.92025
223 3 48 19.2 0 -11.569
224 3 49.6 20.8 1.6 -11.4905
225 1 0 22.4 0 -11.9968
226 3 1.6 24 1.6 -11.5356
227 3 3.2 22.4 0 -11.4944
228 1 4.8 24 1.6 -11.9162
229 3 6.4 22.4 0 -11.4581
230 1 8 24 1.6 -11.9058
231 3 9.6 22.4 0 -11.4593
232 1 11.2 24 1.6 -11.8362
233 3 12.8 22.4 0 -11.513
234 3 14.4 24 1.6 -11.4125
235 1 16 22.4 0 -11.8768
236 3 17.6 24 1.6 -11.2414
237 1 19.2 22.4 0 -11.8782
238 3 20.8 24 1.6 -11.3075
239 1 22.4 22.4 0 -11.8674
240 3 24 24 1.6 -11.3075
241 1 25.6 22.4 0 -11.8808
242 3 27.2 24 1.6 -11.415
243 3 28.8 22.4 0 -11.5242
244 3 30.4 24 1.6 -11.479
245 3 32 22.4 0 -11.4953
246 3 33.6 24 1.6 -11.4794
247 3 35.2 22.4 0 -11.5382
248 3 36.8 24 1.6 -11.4506
249 3 38.4 22.4 0 -11.4708
250 2 40 24 1.6 -9.92953
251 2 41.6 22.4 0 -9.9108
252 3 43.2 24 1.6 -11.3898
253 1 44.8 22.4 0 -11.9233
254 3 46.4 24 1.6 -11.2702
255 1 48 22.4 0 -11.8751
256 3 49.6 24 1.6 -11.3719
257 2 0 25.6 0 -9.9372
259 3 3.2 25.6 0 -11.4799
261 3 6.4 25.6 0 -11.4187
263 2 9.6 25.6 0 -9.96383
265 3 12.8 25.6 0 -11.431
267 1 16 25.6 0 -11.8773
269 1 19.2 25.6 0 -11.8676
271 2 22.4 25.6 0 -9.81264
273 1 25.6 25.6 0 -11.9031
275 1 28.8 25.6 0 -11.8767
277 1 32 25.6 0 -11.9163
279 1 35.2 25.6 0 -11.9168
281 1 38.4 25.6 0 -11.8094
283 2 41.6 25.6 0 -9.84735
285 2 44.8 25.6 0 -9.92805
287 1 48 25.6 0 -11.9326
258 3 1.6 27.2 1.6 -11.4782
289 3 0 28.8 0 -11.4964
260 1 4.8 27.2 1.6 -11.9277
291 3 3.2 28.8 0 -11.4666
262 3 8 27.2 1.6 -11.4483
293 3 6.4 28.8 0 -11.4152
264 3 11.2 27.2 1.6 -11.4594
295 3 9.6 28.8 0 -11.4491
266 3 14.4 27.2 1.6 -11.5354
297 3 12.8 28.8 0 -11.5572
268 3 17.6 27.2 1.6 -11.3381
299 1 16 28.8 0 -11.9116
270 3 20.8 27.2 1.6 -11.3642
301 1 19.2 28.8 0 -11.9033
272 3 24 27.2 1.6 -11.3642
303 2 22.4 28.8 0 -9.81264
305 1 25.6 28.8 0 -11.8672
274 3 27.2 27.2 1.6 -11.2417
307 1 28.8 28.8 0 -11.8771
276 3 30.4 27.2 1.6 -11.3866
309 3 32 28.8 0 -11.4957
278 3 33.6 27.2 1.6 -11.4504
311 3 35.2 28.8 0 -11.4285
280 3 36.8 27.2 1.6 -11.4056
313 2 38.4 28.8 0 -9.94366
282 3 40 27.2 1.6 -11.3831
315 1 41.6 28.8 0 -11.9035
284 3 43.2 27.2 1.6 -11.4729
317 3 44.8 28.8 0 -11.4747
286 3 46.4 27.2 1.6 -11.5319
319 3 48 28.8 0 -11.5681
288 3 49.6 27.2 1.6 -11.5061
290 3 1.6 30.4 1.6 -11.5124
321 1 0 32 0 -11.9048
292 1 4.8 30.4 1.6 -11.9496
323 3 3.2 32 0 -11.4355
294 3 8 30.4 1.6 -11.4788
325 3 6.4 32 0 -11.4011
296 3 11.2 30.4 1.6 -11.6041
327 3 9.6 32 0 -11.5391
298 3 14.4 30.4 1.6 -11.5654
329 3 12.8 32 0 -11.5803
300 3 17.6 30.4 1.6 -11.4147
331 1 16 32 0 -11.9114
302 3 20.8 30.4 1.6 -11.3075
333 1 19.2 32 0 -11.8406
304 3 24 30.4 1.6 -11.3078
335 1 22.4 32 0 -11.8674
337 1 25.6 32 0 -11.8669
306 3 27.2 30.4 1.6 -11.2036
339 1 28.8 32 0 -11.8647
308 2 30.4 30.4 1.6 -9.9259
341 3 32 32 0 -11.4569
310 1 33.6 30.4 1.6 -11.9402
343 3 35.2 32 0 -11.4889
312 1 36.8 30.4 1.6 -11.9046
345 3 38.4 32 0 -11.5552
314 3 40 30.4 1.6 -11.3955
347 1 41.6 32 0 -11.8755
316 3 43.2 30.4 1.6 -11.4019
349 1 44.8 32 0 -11.9503
318 3 46.4 30.4 1.6 -11.4889
351 1 48 32 0 -11.9106
320 3 49.6 30.4 1.6 -11.4892
322 3 1.6 33.6 1.6 -11.4317
353 1 0 35.2 0 -11.8998
324 1 4.8 33.6 1.6 -11.8765
355 3 3.2 35.2 0 -11.436
326 1 8 33.6 1.6 -11.9372
357 3 6.4 35.2 0 -11.3715
328 3 11.2 33.6 1.6 -11.4402
359 3 9.6 35.2 0 -11.4011
330 3 14.4 33.6 1.6 -11.6069
361 3 12.8 35.2 0 -11.5372
332 3 17.6 33.6 1.6 -11.3384
363 1 16 35.2 0 -11.9226
334 3 20.8 33.6 1.6 -11.3384
365 1 19.2 35.2 0 -11.8695
336 3 24 33.6 1.6 -11.3061
367 1 22.4 35.2 0 -11.9397
369 1 25.6 35.2 0 -11.9221
338 3 27.2 33.6 1.6 -11.3874
371 3 28.8 35.2 0 -11.4405
340 3 30.4 33.6 1.6 -11.4808
373 3 32 35.2 0 -11.552
342 3 33.6 33.6 1.6 -11.5117
375 3 35.2 35.2 0 -11.6419
344 3 36.8 33.6 1.6 -11.5114
377 3 38.4 35.2 0 -11.5772
346 3 40 33.6 1.6 -11.5125
379 1 41.6 35.2 0 -11.9267
348 3 43.2 33.6 1.6 -11.4665
381 3 44.8 35.2 0 -11.4998
350 3 46.4 33.6 1.6 -11.3829
383 1 48 35.2 0 -11.9279
352 3 49.6 33.6 1.6 -11.3076
354 1 1.6 36.8 1.6 -11.8882
385 3 0 38.4 0 -11.4549
356 1 4.8 36.8 1.6 -11.9026
387 3 3.2 38.4 0 -11.4569
358 1 8 36.8 1.6 -11.8668
389 3 6.4 38.4 0 -11.5525
360 1 11.2 36.8 1.6 -11.9116
391 3 9.6 38.4 0 -11.4451
362 3 14.4 36.8 1.6 -11.5377
393 3 12.8 38.4 0 -11.6068
364 3 17.6 36.8 1.6 -11.3606
395 3 16 38.4 0 -11.483
366 3 20.8 36.8 1.6 -11.4758
397 2 19.2 38.4 0 -9.93137
368 3 24 36.8 1.6 -11.5093
399 3 22.4 38.4 0 -11.4851
401 3 25.6 38.4 0 -11.4908
370 2 27.2 36.8 1.6 -9.95819
403 3 28.8 38.4 0 -11.3911
372 1 30.4 36.8 1.6 -11.9391
405 3 32 38.4 0 -11.4141
374 3 33.6 36.8 1.6 -11.4408
407 3 35.2 38.4 0 -11.4887
376 1 36.8 36.8 1.6 -11.9447
409 3 38.4 38.4 0 -11.4659
378 1 40 36.8 1.6 -11.8972
411 3 41.6 38.4 0 -11.4674
380 3 43.2 36.8 1.6 -11.5084
413 3 44.8 38.4 0 -11.5722
382 3 46.4 36.8 1.6 -11.4816
415 3 48 38.4 0 -11.5657
384 3 49.6 36.8 1.6 -11.456
386 1 1.6 40 1.6 -11.9174
417 3 0 41.6 0 -11.4611
388 3 4.8 40 1.6 -11.4144
419 3 3.2 41.6 0 -11.4151
390 2 8 40 1.6 -9.87152
421 3 6.4 41.6 0 -11.4764
392 1 11.2 40 1.6 -11.9395
423 3 9.6 41.6 0 -11.5129
394 3 14.4 40 1.6 -11.5371
425 3 12.8 41.6 0 -11.5116
396 3 17.6 40 1.6 -11.5538
427 2 16 41.6 0 -10.0436
398 3 20.8 40 1.6 -11.4583
429 3 19.2 41.6 0 -11.5164
400 3 24 40 1.6 -11.5115
431 3 22.4 41.6 0 -11.479
433 3 25.6 41.6 0 -11.4964
402 1 27.2 40 1.6 -11.9019
435 3 28.8 41.6 0 -11.3381
404 1 30.4 40 1.6 -11.8408
437 3 32 41.6 0 -11.3384
406 1 33.6 40 1.6 -11.9178
439 3 35.2 41.6 0 -11.4141
408 1 36.8 40 1.6 -11.8767
441 3 38.4 41.6 0 -11.3644
410 1 40 40 1.6 -11.9056
443 2 41.6 41.6 0 -9.93989
412 2 43.2 40 1.6 -9.89977
445 3 44.8 41.6 0 -11.3606
414 1 46.4 40 1.6 -11.9395
447 3 48 41.6 0 -11.4606
416 3 49.6 40 1.6 -11.4406
418 1 1.6 43.2 1.6 -11.8401
449 3 0 44.8 0 -11.4611
420 1 4.8 43.2 1.6 -11.8465
451 3 3.2 44.8 0 -11.3058
422 1 8 43.2 1.6 -11.8705
453 2 6.4 44.8 0 -9.87654
424 1 11.2 43.2 1.6 -11.8763
455 3 9.6 44.8 0 -11.4069
426 1 14.4 43.2 1.6 -11.9636
457 3 12.8 44.8 0 -11.4795
428 3 17.6 43.2 1.6 -11.5373
459 3 16 44.8 0 -11.5119
430 3 20.8 43.2 1.6 -11.5116
461 3 19.2 44.8 0 -11.5527
432 3 24 43.2 1.6 -11.4791
463 3 22.4 44.8 0 -11.415
465 3 25.6 44.8 0 -11.4303
434 1 27.2 43.2 1.6 -11.9129
467 3 28.8 44.8 0 -11.3384
436 1 30.4 43.2 1.6 -11.8776
469 3 32 44.8 0 -11.3786
438 3 33.6 43.2 1.6 -11.5121
471 3 35.2 44.8 0 -11.4889
440 3 36.8 43.2 1.6 -11.441
473 3 38.4 44.8 0 -11.3384
442 1 40 43.2 1.6 -11.8915
475 3 41.6 44.8 0 -11.3056
444 3 43.2 43.2 1.6 -11.4003
477 3 44.8 44.8 0 -11.426
446 1 46.4 43.2 1.6 -11.8763
479 3 48 44.8 0 -11.4836
448 1 49.6 43.2 1.6 -11.9884
450 1 1.6 46.4 1.6 -11.8531
481 2 0 48 0 -9.94746
452 1 4.8 46.4 1.6 -11.8539
483 3 3.2 48 0 -11.3015
454 1 8 46.4 1.6 -11.8784
485 3 6.4 48 0 -11.4418
456 1 11.2 46.4 1.6 -11.8769
487 3 9.6 48 0 -11.4377
458 1 14.4 46.4 1.6 -11.9048
489 3 12.8 48 0 -11.4366
460 1 17.6 46.4 1.6 -11.9113
491 3 16 48 0 -11.4587
462 1 20.8 46.4 1.6 -11.8459
493 3 19.2 48 0 -11.3863
464 1 24 46.4 1.6 -11.8463
495 3 22.4 48 0 -11.2036
497 3 25.6 48 0 -11.3904
466 1 27.2 46.4 1.6 -11.8774
499 3 28.8 48 0 -11.4705
468 1 30.4 46.4 1.6 -11.8769
501 3 32 48 0 -11.5523
470 3 33.6 46.4 1.6 -11.4409
503 3 35.2 48 0 -11.4609
472 1 36.8 46.4 1.6 -11.9126
505 3 38.4 48 0 -11.2417
474 1 40 46.4 1.6 -11.8407
507 3 41.6 48 0 -11.3381
476 1 43.2 46.4 1.6 -11.9178
509 3 44.8 48 0 -11.4769
478 1 46.4 46.4 1.6 -11.8886
511 1 48 48 0 -11.9075
480 3 49.6 46.4 1.6 -11.4361
482 1 1.6 49.6 1.6 -11.8534
484 1 4.8 49.6 1.6 -11.8407
486 1 8 49.6 1.6 -11.9122
488 1 11.2 49.6 1.6 -11.835
490 1 14.4 49.6 1.6 -11.9178
492 1 17.6 49.6 1.6 -11.9295
494 1 20.8 49.6 1.6 -11.8529
496 1 24 49.6 1.6 -11.8863
498 3 27.2 49.6 1.6 -11.4141
500 1 30.4 49.6 1.6 -11.9866
502 3 33.6 49.6 1.6 -11.5683
504 1 36.8 49.6 1.6 -11.8526
506 1 40 49.6 1.6 -11.8782
508 3 43.2 49.6 1.6 -11.4141
510 3 46.4 49.6 1.6 -11.4818
512 3 49.6 49.6 1.6 -11.4959
513 3 0 0 3.2 -11.4665
514 1 1.6 1.6 4.8 -11.8673
515 3 3.2 0 3.2 -11.2414
516 1 4.8 1.6 4.8 -11.8675
517 3 6.4 0 3.2 -11.3905
518 2 8 1.6 4.8 -9.87235
519 3 9.6 0 3.2 -11.3845
520 2 11.2 1.6 4.8 -9.92874
521 2 12.8 0 3.2 -9.98755
522 3 14.4 1.6 4.8 -11.5446
523 3 16 0 3.2 -11.5074
524 2 17.6 1.6 4.8 -9.98285
525 3 19.2 0 3.2 -11.4739
526 3 20.8 1.6 4.8 -11.4989
527 3 22.4 0 3.2 -11.521
528 3 24 1.6 4.8 -11.5772
529 3 25.6 0 3.2 -11.6057
530 3 27.2 1.6 4.8 -11.4868
531 3 28.8 0 3.2 -11.5589
532 1 30.4 1.6 4.8 -11.9505
533 3 32 0 3.2 -11.6057
534 3 33.6 1.6 4.8 -11.5116
535 3 35.2 0 3.2 -11.5208
536 1 36.8 1.6 4.8 -11.9118
537 3 38.4 0 3.2 -11.2417
538 1 40 1.6 4.8 -11.9121
539 3 41.6 0 3.2 -11.4716
540 3 43.2 1.6 4.8 -11.4254
541 3 44.8 0 3.2 -11.5506
542 3 46.4 1.6 4.8 -11.4576
543 3 48 0 3.2 -11.4783
544 2 49.6 1.6 4.8 -9.94224
545 3 0 3.2 3.2 -11.4281
546 1 1.6 4.8 4.8 -11.8922
547 3 3.2 3.2 3.2 -11.2417
548 1 4.8 4.8 4.8 -11.877
549 3 6.4 3.2 3.2 -11.4391
550 1 8 4.8 4.8 -11.8976
551 2 9.6 3.2 3.2 -10.0275
552 3 11.2 4.8 4.8 -11.3831
553 3 12.8 3.2 3.2 -11.5145
554 3 14.4 4.8 4.8 -11.5889
555 1 16 3.2 3.2 -11.8822
556 3 17.6 4.8 4.8 -11.4073
557 1 19.2 3.2 3.2 -11.8537
558 2 20.8 4.8 4.8 -9.99769
559 3 22.4 3.2 3.2 -11.4903
560 3 24 4.8 4.8 -11.5403
561 3 25.6 3.2 3.2 -11.5522
562 1 27.2 4.8 4.8 -11.9641
563 3 28.8 3.2 3.2 -11.3381
564 1 30.4 4.8 4.8 -11.911
565 3 32 3.2 3.2 -11.4887
566 3 33.6 4.8 4.8 -11.5494
567 3 35.2 3.2 3.2 -11.5522
568 3 36.8 4.8 4.8 -11.5113
569 3 38.4 3.2 3.2 -11.4897
570 3 40 4.8 4.8 -11.5927
571 3 41.6 3.2 3.2 -11.4722
572 2 43.2 4.8 4.8 -10.0398
573 1 44.8 3.2 3.2 -11.9103
574 3 46.4 4.8 4.8 -11.4897
575 1 48 3.2 3.2 -11.9358
576 3 49.6 4.8 4.8 -11.5244
577 2 0 6.4 3.2 -10.0117
578 3 1.6 8 4.8 -11.3574
579 3 3.2 6.4 3.2 -11.3796
580 3 4.8 8 4.8 -11.4683
581 3 6.4 6.4 3.2 -11.526
582 1 8 8 4.8 -11.8585
583 2 9.6 6.4 3.2 -9.95791
584 1 11.2 8 4.8 -11.9226
585 3 12.8 6.4 3.2 -11.562
586 3 14.4 8 4.8 -11.4788
587 1 16 6.4 3.2 -11.8763
588 3 17.6 8 4.8 -11.4143
589 1 19.2 6.4 3.2 -11.8907
590 3 20.8 8 4.8 -11.3823
591 1 22.4 6.4 3.2 -11.9159
592 3 24 8 4.8 -11.4429
593 3 25.6 6.4 3.2 -11.4855
594 3 27.2 8 4.8 -11.4781
595 3 28.8 6.4 3.2 -11.4152
596 3 30.4 8 4.8 -11.4848
597 3 32 6.4 3.2 -11.4898
598 3 33.6 8 4.8 -11.5385
599 3 35.2 6.4 3.2 -11.4788
600 3 36.8 8 4.8 -11.4505
601 3 38.4 6.4 3.2 -11.5372
602 3 40 8 4.8 -11.511
603 3 41.6 6.4 3.2 -11.5898
604 1 43.2 8 4.8 -11.9353
605 3 44.8 6.4 3.2 -11.4922
606 1 46.4 8 4.8 -11.879
607 3 48 6.4 3.2 -11.4945
608 2 49.6 8 4.8 -10.0053
609 2 0 9.6 3.2 -9.91806
610 3 1.6 11.2 4.8 -11.3855
611 1 3.2 9.6 3.2 -11.8697
612 2 4.8 11.2 4.8 -9.91499
613 3 6.4 9.6 3.2 -11.5152
614 1 8 11.2 4.8 -11.8779
615 3 9.6 9.6 3.2 -11.4504
616 1 11.2 11.2 4.8 -11.9489
617 3 12.8 9.6 3.2 -11.5117
618 3 14.4 11.2 4.8 -11.5372
619 1 16 9.6 3.2 -11.8765
620 3 17.6 11.2 4.8 -11.4894
621 1 19.2 9.6 3.2 -11.9174
622 3 20.8 11.2 4.8 -11.4636
623 1 22.4 9.6 3.2 -11.9017
624 3 24 11.2 4.8 -11.3977
625 2 25.6 9.6 3.2 -9.94241
626 3 27.2 11.2 4.8 -11.4648
627 3 28.8 9.6 3.2 -11.5
628 2 30.4 11.2 4.8 -10.019
629 3 32 9.6 3.2 -11.5019
630 3 33.6 11.2 4.8 -11.4993
631 3 35.2 9.6 3.2 -11.4587
632 2 36.8 11.2 4.8 -9.95822
633 3 38.4 9.6 3.2 -11.4584
634 3 40 11.2 4.8 -11.5196
635 3 41.6 9.6 3.2 -11.5058
636 2 43.2 11.2 4.8 -9.99505
637 3 44.8 9.6 3.2 -11.4753
638 1 46.4 11.2 4.8 -11.9045
639 3 48 9.6 3.2 -11.5315
640 3 49.6 11.2 4.8 -11.4191
641 2 0 12.8 3.2 -9.89556
642 2 1.6 14.4 4.8 -9.88008
643 3 3.2 12.8 3.2 -11.4008
644 1 4.8 14.4 4.8 -11.8402
645 3 6.4 12.8 3.2 -11.4907
646 1 8 14.4 4.8 -11.863
647 3 9.6 12.8 3.2 -11.4589
648 1 11.2 14.4 4.8 -11.9385
649 3 12.8 12.8 3.2 -11.4952
650 3 14.4 14.4 4.8 -11.5228
651 1 16 12.8 3.2 -11.9359
652 3 17.6 14.4 4.8 -11.4741
653 1 19.2 12.8 3.2 -11.8767
654 3 20.8 14.4 4.8 -11.5064
655 1 22.4 12.8 3.2 -11.8773
656 3 24 14.4 4.8 -11.3905
657 1 25.6 12.8 3.2 -11.9167
658 3 27.2 14.4 4.8 -11.4654
659 2 28.8 12.8 3.2 -9.97736
660 2 30.4 14.4 4.8 -9.92124
661 3 32 12.8 3.2 -11.5136
662 3 33.6 14.4 4.8 -11.4962
663 3 35.2 12.8 3.2 -11.4854
664 1 36.8 14.4 4.8 -11.8926
665 3 38.4 12.8 3.2 -11.5071
666 3 40 14.4 4.8 -11.5695
667 3 41.6 12.8 3.2 -11.5366
668 3 43.2 14.4 4.8 -11.5608
669 3 44.8 12.8 3.2 -11.5304
670 1 46.4 14.4 4.8 -11.911
671 3 48 12.8 3.2 -11.3622
672 1 49.6 14.4 4.8 -11.8094
673 2 0 16 3.2 -9.83226
674 1 1.6 17.6 4.8 -11.8776
675 3 3.2 16 3.2 -11.4161
676 1 4.8 17.6 4.8 -11.8461
677 3 6.4 16 3.2 -11.3796
678 1 8 17.6 4.8 -11.8114
679 3 9.6 16 3.2 -11.3615
680 1 11.2 17.6 4.8 -11.8405
681 3 12.8 16 3.2 -11.4084
682 1 14.4 17.6 4.8 -11.87
683 2 16 16 3.2 -9.9058
684 2 17.6 17.6 4.8 -9.94118
685 1 19.2 16 3.2 -11.8808
686 3 20.8 17.6 4.8 -11.4829
687 1 22.4 16 3.2 -11.8668
688 3 24 17.6 4.8 -11.3902
689 1 25.6 16 3.2 -11.9021
690 3 27.2 17.6 4.8 -11.4587
691 2 28.8 16 3.2 -9.9651
692 1 30.4 17.6 4.8 -11.8965
693 3 32 16 3.2 -11.5149
694 3 33.6 17.6 4.8 -11.4275
695 3 35.2 16 3.2 -11.5298
696 1 36.8 17.6 4.8 -11.9166
697 3 38.4 16 3.2 -11.479
698 3 40 17.6 4.8 -11.5381
699 1 41.6 16 3.2 -11.9809
700 3 43.2 17.6 4.8 -11.4894
701 3 44.8 16 3.2 -11.4948
702 3 46.4 17.6 4.8 -11.485
703 3 48 16 3.2 -11.3551
704 1 49.6 17.6 4.8 -11.8787
705 3 0 19.2 3.2 -11.4946
706 3 1.6 20.8 4.8 -11.567
707 3 3.2 19.2 3.2 -11.4896
708 3 4.8 20.8 4.8 -11.479
709 3 6.4 19.2 3.2 -11.3384
710 1 8 20.8 4.8 -11.9122
711 3 9.6 19.2 3.2 -11.242
712 1 11.2 20.8 4.8 -11.912
713 3 12.8 19.2 3.2 -11.354
714 3 14.4 20.8 4.8 -11.5116
715 2 16 19.2 3.2 -9.88235
716 3 17.6 20.8 4.8 -11.4513
717 1 19.2 19.2 3.2 -11.9059
718 3 20.8 20.8 4.8 -11.4459
719 1 22.4 19.2 3.2 -11.8779
720 3 24 20.8 4.8 -11.3381
721 1 25.6 19.2 3.2 -11.8767
722 3 27.2 20.8 4.8 -11.4793
723 3 28.8 19.2 3.2 -11.4505
724 1 30.4 20.8 4.8 -11.911
725 3 32 19.2 3.2 -11.4145
726 1 33.6 20.8 4.8 -11.9174
727 3 35.2 19.2 3.2 -11.4141
728 1 36.8 20.8 4.8 -11.9107
729 3 38.4 19.2 3.2 -11.4797
730 3 40 20.8 4.8 -11.4502
731 1 41.6 19.2 3.2 -11.876
732 3 43.2 20.8 4.8 -11.242
733 1 44.8 19.2 3.2 -11.8948
734 3 46.4 20.8 4.8 -11.383
735 3 48 19.2 3.2 -11.4776
736 3 49.6 20.8 4.8 -11.4909
737 2 0 22.4 3.2 -9.88989
738 3 1.6 24 4.8 -11.4423
739 3 3.2 22.4 3.2 -11.5317
740 3 4.8 24 4.8 -11.4929
741 3 6.4 22.4 3.2 -11.4901
742 3 8 24 4.8 -11.4954
743 3 9.6 22.4 3.2 -11.387
744 3 11.2 24 4.8 -11.4951
745 3 12.8 22.4 3.2 -11.4607
746 3 14.4 24 4.8 -11.538
747 1 16 22.4 3.2 -11.9358
748 3 17.6 24 4.8 -11.4581
749 1 19.2 22.4 3.2 -11.8667
750 3 20.8 24 4.8 -11.3909
751 1 22.4 22.4 3.2 -11.841
752 3 24 24 4.8 -11.2414
753 1 25.6 22.4 3.2 -11.8776
754 3 27.2 24 4.8 -11.4898
755 3 28.8 22.4 3.2 -11.5116
756 3 30.4 24 4.8 -11.4954
757 3 32 22.4 3.2 -11.4794
758 3 33.6 24 4.8 -11.4487
759 3 35.2 22.4 3.2 -11.4794
760 3 36.8 24 4.8 -11.5672
761 3 38.4 22.4 3.2 -11.4955
762 3 40 24 4.8 -11.496
763 1 41.6 22.4 3.2 -11.8811
764 3 43.2 24 4.8 -11.3387
765 1 44.8 22.4 3.2 -11.8114
766 3 46.4 24 4.8 -11.2417
767 1 48 22.4 3.2 -11.8775
768 3 49.6 24 4.8 -11.3078
769 1 0 25.6 3.2 -11.9171
771 2 3.2 25.6 3.2 -9.97821
773 3 6.4 25.6 3.2 -11.4846
775 2 9.6 25.6 3.2 -9.89219
777 1 12.8 25.6 3.2 -11.9288
779 1 16 25.6 3.2 -11.9112
781 1 19.2 25.6 3.2 -11.8775
783 1 22.4 25.6 3.2 -11.8676
785 1 25.6 25.6 3.2 -11.8405
787 1 28.8 25.6 3.2 -11.9116
789 1 32 25.6 3.2 -11.9166
791 1 35.2 25.6 3.2 -11.9162
793 1 38.4 25.6 3.2 -11.8891
795 1 41.6 25.6 3.2 -11.8809
797 1 44.8 25.6 3.2 -11.8667
799 1 48 25.6 3.2 -11.8776
770 3 1.6 27.2 4.8 -11.3909
801 1 0 28.8 3.2 -11.9502
772 3 4.8 27.2 4.8 -11.4583
803 3 3.2 28.8 3.2 -11.4849
774 3 8 27.2 4.8 -11.4663
805 3 6.4 28.8 3.2 -11.5109
776 3 11.2 27.2 4.8 -11.5182
807 1 9.6 28.8 3.2 -11.9964
778 3 14.4 27.2 4.8 -11.4944
809 2 12.8 28.8 3.2 -9.99546
780 3 17.6 27.2 4.8 -11.5529
811 3 16 28.8 3.2 -11.4527
782 3 20.8 27.2 4.8 -11.3381
813 1 19.2 28.8 3.2 -11.8774
784 3 24 27.2 4.8 -11.3381
815 1 22.4 28.8 3.2 -11.8673
817 1 25.6 28.8 3.2 -11.8778
786 3 27.2 27.2 4.8 -11.4894
819 1 28.8 28.8 3.2 -11.864
788 3 30.4 27.2 4.8 -11.4656
821 3 32 28.8 3.2 -11.4594
790 2 33.6 27.2 4.8 -9.95816
823 3 35.2 28.8 3.2 -11.4293
792 3 36.8 27.2 4.8 -11.4215
825 2 38.4 28.8 3.2 -9.95225
794 2 40 27.2 4.8 -9.95129
827 2 41.6 28.8 3.2 -9.83114
796 3 43.2 27.2 4.8 -11.4191
829 1 44.8 28.8 3.2 -11.9401
798 3 46.4 27.2 4.8 -11.3381
831 3 48 28.8 3.2 -11.3643
800 3 49.6 27.2 4.8 -11.3381
802 3 1.6 30.4 4.8 -11.5527
833 1 0 32 3.2 -11.9221
804 3 4.8 30.4 4.8 -11.511
835 3 3.2 32 3.2 -11.5376
806 3 8 30.4 4.8 -11.5383
837 3 6.4 32 3.2 -11.4898
808 3 11.2 30.4 4.8 -11.4947
839 3 9.6 32 3.2 -11.537
810 1 14.4 30.4 4.8 -11.9964
841 3 12.8 32 3.2 -11.6291
812 3 17.6 30.4 4.8 -11.4784
843 3 16 32 3.2 -11.479
814 3 20.8 30.4 4.8 -11.3384
845 1 19.2 32 3.2 -11.8773
816 3 24 30.4 4.8 -11.461
847 1 22.4 32 3.2 -11.8932
849 1 25.6 32 3.2 -11.8523
818 3 27.2 30.4 4.8 -11.5212
851 1 28.8 32 3.2 -11.8926
820 2 30.4 30.4 4.8 -9.98905
853 3 32 32 3.2 -11.4995
822 1 33.6 30.4 4.8 -11.8912
855 3 35.2 32 3.2 -11.4143
824 1 36.8 30.4 4.8 -11.8851
857 3 38.4 32 3.2 -11.4524
826 1 40 30.4 4.8 -11.818
859 1 41.6 32 3.2 -11.8832
828 3 43.2 30.4 4.8 -11.4089
861 1 44.8 32 3.2 -11.8913
830 3 46.4 30.4 4.8 -11.4689
863 1 48 32 3.2 -11.8573
832 3 49.6 30.4 4.8 -11.4683
834 3 1.6 33.6 4.8 -11.5001
865 3 0 35.2 3.2 -11.3534
836 1 4.8 33.6 4.8 -11.9116
867 3 3.2 35.2 3.2 -11.4154
838 1 8 33.6 4.8 -11.8765
869 3 6.4 35.2 3.2 -11.2414
840 1 11.2 33.6 4.8 -11.9447
871 3 9.6 35.2 3.2 -11.3381
842 3 14.4 33.6 4.8 -11.5107
873 3 12.8 35.2 3.2 -11.5376
844 3 17.6 33.6 4.8 -11.415
875 1 16 35.2 3.2 -11.9114
846 3 20.8 33.6 4.8 -11.4641
877 1 19.2 35.2 3.2 -11.8778
848 2 24 33.6 4.8 -9.97053
879 3 22.4 35.2 3.2 -11.3311
881 1 25.6 35.2 3.2 -11.8872
850 3 27.2 33.6 4.8 -11.5129
883 3 28.8 35.2 3.2 -11.4768
852 3 30.4 33.6 4.8 -11.5001
885 3 32 35.2 3.2 -11.552
854 1 33.6 33.6 4.8 -11.9117
887 3 35.2 35.2 3.2 -11.4887
856 1 36.8 33.6 4.8 -11.9499
889 3 38.4 35.2 3.2 -11.5275
858 3 40 33.6 4.8 -11.52
891 2 41.6 35.2 3.2 -9.97999
860 3 43.2 33.6 4.8 -11.4507
893 3 44.8 35.2 3.2 -11.4633
862 2 46.4 33.6 4.8 -9.91751
895 1 48 35.2 3.2 -11.7983
864 2 49.6 33.6 4.8 -9.96588
866 1 1.6 36.8 4.8 -11.8772
897 3 0 38.4 3.2 -11.4154
868 1 4.8 36.8 4.8 -11.8776
899 3 3.2 38.4 3.2 -11.3381
870 1 8 36.8 4.8 -11.8781
901 3 6.4 38.4 3.2 -11.3902
872 1 11.2 36.8 4.8 -11.8765
903 3 9.6 38.4 3.2 -11.3075
874 3 14.4 36.8 4.8 -11.4798
905 3 12.8 38.4 3.2 -11.4788
876 3 17.6 36.8 4.8 -11.2033
907 1 16 38.4 3.2 -11.9446
878 3 20.8 36.8 4.8 -11.4643
909 1 19.2 38.4 3.2 -11.8661
880 2 24 36.8 4.8 -9.98518
911 1 22.4 38.4 3.2 -11.9648
913 3 25.6 38.4 3.2 -11.429
882 2 27.2 36.8 4.8 -9.88901
915 3 28.8 38.4 3.2 -11.3652
884 1 30.4 36.8 4.8 -11.9024
917 3 32 38.4 3.2 -11.3381
886 1 33.6 36.8 4.8 -11.8776
919 3 35.2 38.4 3.2 -11.3381
888 1 36.8 36.8 4.8 -11.9114
921 3 38.4 38.4 3.2 -11.4143
890 3 40 36.8 4.8 -11.5004
923 3 41.6 38.4 3.2 -11.5097
892 1 43.2 36.8 4.8 -11.9292
925 3 44.8 38.4 3.2 -11.4659
894 1 46.4 36.8 4.8 -11.8291
927 3 48 38.4 3.2 -11.4024
896 1 49.6 36.8 4.8 -11.8286
898 1 1.6 40 4.8 -11.8405
929 3 0 41.6 3.2 -11.4303
900 1 4.8 40 4.8 -11.8774
931 3 3.2 41.6 3.2 -11.3381
902 1 8 40 4.8 -11.9032
933 3 6.4 41.6 3.2 -11.4736
904 1 11.2 40 4.8 -11.8767
935 3 9.6 41.6 3.2 -11.4011
906 3 14.4 40 4.8 -11.581
937 3 12.8 41.6 3.2 -11.4894
908 3 17.6 40 4.8 -11.4143
939 3 16 41.6 3.2 -11.5239
910 3 20.8 40 4.8 -11.3384
941 1 19.2 41.6 3.2 -11.9441
912 3 24 40 4.8 -11.4754
943 1 22.4 41.6 3.2 -11.9431
945 3 25.6 41.6 3.2 -11.4498
914 1 27.2 40 4.8 -11.8968
947 3 28.8 41.6 3.2 -11.2417
916 1 30.4 40 4.8 -11.8405
949 3 32 41.6 3.2 -11.4141
918 1 33.6 40 4.8 -11.8776
951 3 35.2 41.6 3.2 -11.5482
920 1 36.8 40 4.8 -11.9118
953 3 38.4 41.6 3.2 -11.4959
922 3 40 40 4.8 -11.3642
955 3 41.6 41.6 3.2 -11.5131
924 1 43.2 40 4.8 -11.9368
957 3 44.8 41.6 3.2 -11.4654
926 1 46.4 40 4.8 -11.8402
959 3 48 41.6 3.2 -11.4303
928 1 49.6 40 4.8 -11.9133
930 1 1.6 43.2 4.8 -11.903
961 3 0 44.8 3.2 -11.4707
932 1 4.8 43.2 4.8 -11.9123
963 3 3.2 44.8 3.2 -11.2417
934 3 8 43.2 4.8 -11.3644
965 3 6.4 44.8 3.2 -11.3786
936 1 11.2 43.2 4.8 -11.9179
967 3 9.6 44.8 3.2 -11.4143
938 3 14.4 43.2 4.8 -11.475
969 3 12.8 44.8 3.2 -11.3905
940 3 17.6 43.2 4.8 -11.5668
971 3 16 44.8 3.2 -11.5062
942 3 20.8 43.2 4.8 -11.4797
973 3 19.2 44.8 3.2 -11.4791
944 3 24 43.2 4.8 -11.4956
975 3 22.4 44.8 3.2 -11.447
977 3 25.6 44.8 3.2 -11.4152
946 1 27.2 43.2 4.8 -11.8922
979 3 28.8 44.8 3.2 -11.2414
948 1 30.4 43.2 4.8 -11.9129
981 3 32 44.8 3.2 -11.4887
950 3 33.6 43.2 4.8 -11.4406
983 3 35.2 44.8 3.2 -11.6057
952 3 36.8 43.2 4.8 -11.5119
985 3 38.4 44.8 3.2 -11.4141
954 1 40 43.2 4.8 -11.9512
987 3 41.6 44.8 3.2 -11.4143
956 3 43.2 43.2 4.8 -11.3644
989 3 44.8 44.8 3.2 -11.4141
958 1 46.4 43.2 4.8 -11.9183
991 3 48 44.8 3.2 -11.471
960 3 49.6 43.2 4.8 -11.3353
962 1 1.6 46.4 4.8 -11.9021
993 3 0 48 3.2 -11.4373
964 1 4.8 46.4 4.8 -11.9122
995 3 3.2 48 3.2 -11.2417
966 3 8 46.4 4.8 -11.3645
997 3 6.4 48 3.2 -11.3384
968 1 11.2 46.4 4.8 -11.9062
999 3 9.6 48 3.2 -11.3384
970 2 14.4 46.4 4.8 -9.89944
1001 3 12.8 48 3.2 -11.3579
972 1 17.6 46.4 4.8 -11.9073
1003 3 16 48 3.2 -11.4419
974 1 20.8 46.4 4.8 -11.8909
1005 3 19.2 48 3.2 -11.3579
976 1 24 46.4 4.8 -11.8912
1007 2 22.4 48 3.2 -9.89573
1009 3 25.6 48 3.2 -11.4579
978 1 27.2 46.4 4.8 -11.8769
1011 3 28.8 48 3.2 -11.4887
980 1 30.4 46.4 4.8 -11.8769
1013 3 32 48 3.2 -11.5517
982 1 33.6 46.4 4.8 -11.9234
1015 3 35.2 48 3.2 -11.4581
984 1 36.8 46.4 4.8 -11.8459
1017 3 38.4 48 3.2 -11.2417
986 1 40 46.4 4.8 -11.8411
1019 3 41.6 48 3.2 -11.3381
988 1 43.2 46.4 4.8 -11.878
1021 3 44.8 48 3.2 -11.4147
990 1 46.4 46.4 4.8 -11.8666
1023 3 48 48 3.2 -11.4559
992 2 49.6 46.4 4.8 -9.93111
994 1 1.6 49.6 4.8 -11.8667
996 1 4.8 49.6 4.8 -11.8775
998 1 8 49.6 4.8 -11.9063
1000 1 11.2 49.6 4.8 -11.8816
1002 3 14.4 49.6 4.8 -11.4495
1004 2 17.6 49.6 4.8 -9.93529
1006 3 20.8 49.6 4.8 -11.4755
1008 3 24 49.6 4.8 -11.5008
1010 3 27.2 49.6 4.8 -11.5782
1012 3 30.4 49.6 4.8 -11.4409
1014 3 33.6 49.6 4.8 -11.5007
1016 1 36.8 49.6 4.8 -11.8538
1018 1 40 49.6 4.8 -11.8411
1020 1 43.2 49.6 4.8 -11.9127
1022 1 46.4 49.6 4.8 -11.9118
1024 1 49.6 49.6 4.8 -11.9287
1025 3 0 0 6.4 -11.3689
1026 1 1.6 1.6 8 -11.8667
1027 3 3.2 0 6.4 -11.3902
1028 1 4.8 1.6 8 -11.8775
1029 3 6.4 0 6.4 -11.3974
1030 1 8 1.6 8 -11.8669
1031 3 9.6 0 6.4 -11.3649
1032 1 11.2 1.6 8 -11.8662
1033 3 12.8 0 6.4 -11.4391
1034 1 14.4 1.6 8 -11.9278
1035 3 16 0 6.4 -11.4811
1036 1 17.6 1.6 8 -11.8955
1037 3 19.2 0 6.4 -11.51
1038 1 20.8 1.6 8 -11.8729
1039 3 22.4 0 6.4 -11.5483
1040 1 24 1.6 8 -11.9352
1041 3 25.6 0 6.4 -11.5873
1042 2 27.2 1.6 8 -9.88953
1043 3 28.8 0 6.4 -11.5316
1044 1 30.4 1.6 8 -11.8657
1045 3 32 0 6.4 -11.4891
1046 1 33.6 1.6 8 -11.9224
1047 3 35.2 0 6.4 -11.3452
1048 1 36.8 1.6 8 -11.8844
1049 3 38.4 0 6.4 -11.242
1050 1 40 1.6 8 -11.9106
1051 3 41.6 0 6.4 -11.3381
1052 1 43.2 1.6 8 -11.9496
1053 3 44.8 0 6.4 -11.4147
1054 1 46.4 1.6 8 -11.9112
1055 3 48 0 6.4 -11.3909
1056 1 49.6 1.6 8 -11.9022
1057 3 0 3.2 6.4 -11.4666
1058 1 1.6 4.8 8 -11.9185
1059 3 3.2 3.2 6.4 -11.2414
1060 1 4.8 4.8 8 -11.912
1061 3 6.4 3.2 6.4 -11.3078
1062 1 8 4.8 8 -11.877
1063 3 9.6 3.2 6.4 -11.4181
1064 1 11.2 4.8 8 -11.912
1065 3 12.8 3.2 6.4 -11.5671
1066 3 14.4 4.8 8 -11.4951
1067 2 16 3.2 6.4 -9.96971
1068 3 17.6 4.8 8 -11.4725
1069 3 19.2 3.2 6.4 -11.481
1070 2 20.8 4.8 8 -9.97179
1071 3 22.4 3.2 6.4 -11.5499
1072 3 24 4.8 8 -11.4623
1073 3 25.6 3.2 6.4 -11.6076
1074 3 27.2 4.8 8 -11.4358
1075 3 28.8 3.2 6.4 -11.4707
1076 1 30.4 4.8 8 -11.9501
1077 3 32 3.2 6.4 -11.4892
1078 3 33.6 4.8 8 -11.511
1079 3 35.2 3.2 6.4 -11.5373
1080 3 36.8 4.8 8 -11.4793
1081 3 38.4 3.2 6.4 -11.4788
1082 3 40 4.8 8 -11.5377
1083 3 41.6 3.2 6.4 -11.5931
1084 3 43.2 4.8 8 -11.5421
1085 3 44.8 3.2 6.4 -11.542
1086 3 46.4 4.8 8 -11.5194
1087 3 48 3.2 6.4 -11.4945
1088 3 49.6 4.8 8 -11.4954
1089 3 0 6.4 6.4 -11.4217
1090 2 1.6 8 8 -9.99901
1091 3 3.2 6.4 6.4 -11.4586
1092 3 4.8 8 8 -11.4975
1093 3 6.4 6.4 6.4 -11.3866
1094 1 8 8 8 -11.8943
1095 3 9.6 6.4 6.4 -11.3061
1096 1 11.2 8 8 -11.8912
1097 3 12.8 6.4 6.4 -11.5379
1098 3 14.4 8 8 -11.4283
1099 1 16 6.4 6.4 -11.9404
1100 3 17.6 8 8 -11.4147
1101 3 19.2 6.4 6.4 -11.4133
1102 3 20.8 8 8 -11.3496