ITEM: TIMESTEP
0
ITEM: NUMBER OF ATOMS
8192
ITEM: BOX BOUNDS pp pp pp
0.0000000000000000e+00 5.1200000000000003e+01
0.0000000000000000e+00 5.1200000000000003e+01
0.0000000000000000e+00 5.1200000000000003e+01
ITEM: ATOMS id type x y z c_eng
1 3 0 0 0 -11.5435
2 3 1.6 1.6 1.6 -11.3958
3 3 3.2 0 0 -11.4545
4 1 4.8 1.6 1.6 -11.72
5 1 6.4 0 0 -11.826
6 3 8 1.6 1.6 -11.3487
7 2 9.6 0 0 -9.94871
8 3 11.2 1.6 1.6 -11.6104
9 3 12.8 0 0 -11.6
10 3 14.4 1.6 1.6 -11.5681
11 3 16 0 0 -11.3996
12 3 17.6 1.6 1.6 -11.4576
13 3 19.2 0 0 -11.3733
14 3 20.8 1.6 1.6 -11.2416
15 3 22.4 0 0 -11.2695
16 1 24 1.6 1.6 -11.7585
17 1 25.6 0 0 -11.7508
18 1 27.2 1.6 1.6 -11.9017
19 3 28.8 0 0 -11.569
20 3 30.4 1.6 1.6 -11.6034
21 2 32 0 0 -9.87132
22 3 33.6 1.6 1.6 -11.488
23 1 35.2 0 0 -11.7587
24 3 36.8 1.6 1.6 -11.6022
25 2 38.4 0 0 -9.95959
26 3 40 1.6 1.6 -11.6022
27 3 41.6 0 0 -11.5693
28 1 43.2 1.6 1.6 -11.6667
29 1 44.8 0 0 -11.7517
30 2 46.4 1.6 1.6 -9.77499
31 1 48 0 0 -11.7499
32 1 49.6 1.6 1.6 -11.7869
33 3 0 3.2 0 -11.4133
34 1 1.6 4.8 1.6 -11.5725
35 1 3.2 3.2 0 -11.5525
36 1 4.8 4.8 1.6 -11.6349
37 3 6.4 3.2 0 -11.3548
38 1 8 4.8 1.6 -11.7581
39 3 9.6 3.2 0 -11.5076
40 3 11.2 4.8 1.6 -11.4942
41 3 12.8 3.2 0 -11.5356
42 1 14.4 4.8 1.6 -11.9197
43 1 16 3.2 0 -11.8217
44 3 17.6 4.8 1.6 -11.2644
45 1 19.2 3.2 0 -11.822
46 1 20.8 4.8 1.6 -11.8651
47 3 22.4 3.2 0 -11.347
48 3 24 4.8 1.6 -11.4994
49 3 25.6 3.2 0 -11.4342
50 3 27.2 4.8 1.6 -11.6148
51 3 28.8 3.2 0 -11.5484
52 3 30.4 4.8 1.6 -11.4994
53 1 32 3.2 0 -11.9083
54 1 33.6 4.8 1.6 -11.872
55 3 35.2 3.2 0 -11.4464
56 3 36.8 4.8 1.6 -11.4999
57 3 38.4 3.2 0 -11.6297
58 3 40 4.8 1.6 -11.5505
59 3 41.6 3.2 0 -11.3959
60 3 43.2 4.8 1.6 -11.4493
61 1 44.8 3.2 0 -11.8675
62 3 46.4 4.8 1.6 -11.5119
63 3 48 3.2 0 -11.4084
64 1 49.6 4.8 1.6 -11.8268
65 3 0 6.4 0 -11.3625
66 3 1.6 8 1.6 -11.222
67 1 3.2 6.4 0 -11.6538
68 1 4.8 8 1.6 -11.8276
69 3 6.4 6.4 0 -11.2717
70 1 8 8 1.6 -11.7701
71 1 9.6 6.4 0 -11.8305
72 3 11.2 8 1.6 -11.4731
73 3 12.8 6.4 0 -11.5925
74 3 14.4 8 1.6 -11.3901
75 3 16 6.4 0 -11.4089
76 3 17.6 8 1.6 -11.3078
77 3 19.2 6.4 0 -11.3338
78 1 20.8 8 1.6 -11.763
79 2 22.4 6.4 0 -10.0078
80 3 24 8 1.6 -11.622
81 3 25.6 6.4 0 -11.5923
82 3 27.2 8 1.6 -11.6372
83 1 28.8 6.4 0 -11.9319
84 3 30.4 8 1.6 -11.4716
85 3 32 6.4 0 -11.4757
86 3 33.6 8 1.6 -11.4018
87 3 35.2 6.4 0 -11.5667
88 1 36.8 8 1.6 -11.6506
89 3 38.4 6.4 0 -11.336
90 3 40 8 1.6 -11.1951
91 1 41.6 6.4 0 -11.7834
92 1 43.2 8 1.6 -11.9016
93 3 44.8 6.4 0 -11.4341
94 2 46.4 8 1.6 -10.044
95 3 48 6.4 0 -11.6051
96 3 49.6 8 1.6 -11.3208
97 1 0 9.6 0 -11.9007
98 3 1.6 11.2 1.6 -11.2847
99 1 3.2 9.6 0 -11.9
100 3 4.8 11.2 1.6 -11.4373
101 3 6.4 9.6 0 -11.4579
102 3 8 11.2 1.6 -11.5034
103 3 9.6 9.6 0 -11.4066
104 3 11.2 11.2 1.6 -11.4869
105 2 12.8 9.6 0 -9.97685
106 1 14.4 11.2 1.6 -11.6855
107 1 16 9.6 0 -11.8138
108 2 17.6 11.2 1.6 -9.83727
109 3 19.2 9.6 0 -11.2731
110 1 20.8 11.2 1.6 -11.7111
111 3 22.4 9.6 0 -11.5678
112 3 24 11.2 1.6 -11.4916
113 3 25.6 9.6 0 -11.5445
114 3 27.2 11.2 1.6 -11.5153
115 3 28.8 9.6 0 -11.4343
116 1 30.4 11.2 1.6 -11.9484
117 3 32 9.6 0 -11.5641
118 1 33.6 11.2 1.6 -11.8404
119 3 35.2 9.6 0 -11.2614
120 1 36.8 11.2 1.6 -11.7603
121 1 38.4 9.6 0 -11.6752
122 2 40 11.2 1.6 -9.89666
123 3 41.6 9.6 0 -11.2494
124 3 43.2 11.2 1.6 -11.2849
125 2 44.8 9.6 0 -10.0244
126 3 46.4 11.2 1.6 -11.5127
127 3 48 9.6 0 -11.582
128 1 49.6 11.2 1.6 -11.68
129 3 0 12.8 0 -11.4344
130 1 1.6 14.4 1.6 -11.9343
131 3 3.2 12.8 0 -11.4327
132 1 4.8 14.4 1.6 -11.8999
133 1 6.4 12.8 0 -11.8633
134 3 8 14.4 1.6 -11.3676
135 3 9.6 12.8 0 -11.3984
136 1 11.2 14.4 1.6 -11.9302
137 1 12.8 12.8 0 -11.8598
138 3 14.4 14.4 1.6 -11.2751
139 1 16 12.8 0 -11.7608
140 3 17.6 14.4 1.6 -11.5049
141 1 19.2 12.8 0 -11.8464
142 1 20.8 14.4 1.6 -11.8154
143 3 22.4 12.8 0 -11.3438
144 3 24 14.4 1.6 -11.4029
145 1 25.6 12.8 0 -11.9125
146 3 27.2 14.4 1.6 -11.5896
147 3 28.8 12.8 0 -11.5922
148 3 30.4 14.4 1.6 -11.5671
149 3 32 12.8 0 -11.5594
150 1 33.6 14.4 1.6 -11.9077
151 3 35.2 12.8 0 -11.4338
152 3 36.8 14.4 1.6 -11.4349
153 3 38.4 12.8 0 -11.5257
154 3 40 14.4 1.6 -11.5209
155 3 41.6 12.8 0 -11.3689
156 1 43.2 14.4 1.6 -11.7299
157 3 44.8 12.8 0 -11.4251
158 3 46.4 14.4 1.6 -11.4366
159 3 48 12.8 0 -11.6156
160 3 49.6 14.4 1.6 -11.4998
161 3 0 16 0 -11.6782
162 3 1.6 17.6 1.6 -11.5487
163 3 3.2 16 0 -11.5898
164 1 4.8 17.6 1.6 -11.8061
165 3 6.4 16 0 -11.37
166 1 8 17.6 1.6 -11.6264
167 2 9.6 16 0 -9.93069
168 1 11.2 17.6 1.6 -11.6449
169 3 12.8 16 0 -11.4811
170 1 14.4 17.6 1.6 -12.0167
171 3 16 16 0 -11.6149
172 3 17.6 17.6 1.6 -11.6143
173 3 19.2 16 0 -11.6151
174 3 20.8 17.6 1.6 -11.5851
175 3 22.4 16 0 -11.5856
176 3 24 17.6 1.6 -11.5354
177 3 25.6 16 0 -11.4371
178 3 27.2 17.6 1.6 -11.4948
179 3 28.8 16 0 -11.6565
180 3 30.4 17.6 1.6 -11.5575
181 3 32 16 0 -11.524
182 1 33.6 17.6 1.6 -11.8585
183 1 35.2 16 0 -11.6289
184 3 36.8 17.6 1.6 -11.3848
185 3 38.4 16 0 -11.3783
186 2 40 17.6 1.6 -10.0136
187 1 41.6 16 0 -11.8821
188 3 43.2 17.6 1.6 -11.4577
189 3 44.8 16 0 -11.3389
190 3 46.4 17.6 1.6 -11.4644
191 3 48 16 0 -11.5772
192 3 49.6 17.6 1.6 -11.5841
193 3 0 19.2 0 -11.5767
194 3 1.6 20.8 1.6 -11.5338
195 3 3.2 19.2 0 -11.5154
196 1 4.8 20.8 1.6 -11.7319
197 1 6.4 19.2 0 -11.6525
198 1 8 20.8 1.6 -11.5053
199 1 9.6 19.2 0 -11.5637
200 1 11.2 20.8 1.6 -11.7051
201 3 12.8 19.2 0 -11.4547
202 3 14.4 20.8 1.6 -11.5068
203 3 16 19.2 0 -11.678
204 3 17.6 20.8 1.6 -11.6064
205 3 19.2 19.2 0 -11.4755
206 3 20.8 20.8 1.6 -11.5347
207 1 22.4 19.2 0 -11.919
208 3 24 20.8 1.6 -11.4235
209 1 25.6 19.2 0 -11.7666
210 1 27.2 20.8 1.6 -11.8412
211 3 28.8 19.2 0 -11.4362
212 3 30.4 20.8 1.6 -11.6042
213 3 32 19.2 0 -11.5567
214 3 33.6 20.8 1.6 -11.3828
215 3 35.2 19.2 0 -11.1806
216 1 36.8 20.8 1.6 -11.8619
217 1 38.4 19.2 0 -11.7944
218 2 40 20.8 1.6 -9.94378
219 3 41.6 19.2 0 -11.4114
220 3 43.2 20.8 1.6 -11.4112
221 1 44.8 19.2 0 -11.7475
222 1 46.4 20.8 1.6 -11.6513
223 1 48 19.2 0 -11.7892
224 3 49.6 20.8 1.6 -11.3867
225 3 0 22.4 0 -11.6317
226 3 1.6 24 1.6 -11.506
227 3 3.2 22.4 0 -11.4456
228 3 4.8 24 1.6 -11.2731
229 3 6.4 22.4 0 -11.3357
230 1 8 24 1.6 -11.9348
231 3 9.6 22.4 0 -11.4018
232 3 11.2 24 1.6 -11.2536
233 3 12.8 22.4 0 -11.4569
234 3 14.4 24 1.6 -11.5196
235 3 16 22.4 0 -11.5931
236 3 17.6 24 1.6 -11.5027
237 3 19.2 22.4 0 -11.4781
238 3 20.8 24 1.6 -11.3367
239 3 22.4 22.4 0 -11.5387
240 1 24 24 1.6 -11.8067
241 3 25.6 22.4 0 -11.2534
242 3 27.2 24 1.6 -11.3486
243 3 28.8 22.4 0 -11.6348
244 3 30.4 24 1.6 -11.656
245 3 32 22.4 0 -11.5366
246 3 33.6 24 1.6 -11.6376
247 3 35.2 22.4 0 -11.542
248 3 36.8 24 1.6 -11.2947
249 3 38.4 22.4 0 -11.3171
250 1 40 24 1.6 -11.7975
251 3 41.6 22.4 0 -11.6587
252 3 43.2 24 1.6 -11.5124
253 3 44.8 22.4 0 -11.4097
254 3 46.4 24 1.6 -11.3118
255 3 48 22.4 0 -11.3424
256 3 49.6 24 1.6 -11.6068
257 3 0 25.6 0 -11.5093
259 1 3.2 25.6 0 -11.8388
261 3 6.4 25.6 0 -11.4357
263 3 9.6 25.6 0 -11.5636
265 3 12.8 25.6 0 -11.414
267 3 16 25.6 0 -11.3969
269 1 19.2 25.6 0 -11.8935
271 2 22.4 25.6 0 -9.81329
273 1 25.6 25.6 0 -11.7885
275 3 28.8 25.6 0 -11.5999
277 3 32 25.6 0 -11.649
279 2 35.2 25.6 0 -9.98121
281 1 38.4 25.6 0 -11.815
283 3 41.6 25.6 0 -11.5227
285 1 44.8 25.6 0 -11.9412
287 1 48 25.6 0 -11.9516
258 3 1.6 27.2 1.6 -11.3947
289 3 0 28.8 0 -11.4681
260 1 4.8 27.2 1.6 -11.7233
291 1 3.2 28.8 0 -11.6469
262 3 8 27.2 1.6 -11.3429
293 1 6.4 28.8 0 -11.7949
264 1 11.2 27.2 1.6 -11.9079
295 3 9.6 28.8 0 -11.5349
266 3 14.4 27.2 1.6 -11.4076
297 3 12.8 28.8 0 -11.3937
268 3 17.6 27.2 1.6 -11.4982
299 1 16 28.8 0 -11.8247
270 1 20.8 27.2 1.6 -11.673
301 3 19.2 28.8 0 -11.3988
272 3 24 27.2 1.6 -11.0497
303 1 22.4 28.8 0 -11.5868
305 1 25.6 28.8 0 -11.5998
274 3 27.2 27.2 1.6 -11.5379
307 2 28.8 28.8 0 -10.01
276 3 30.4 27.2 1.6 -11.6749
309 2 32 28.8 0 -10.0354
278 3 33.6 27.2 1.6 -11.5298
311 3 35.2 28.8 0 -11.3584
280 3 36.8 27.2 1.6 -11.3591
313 1 38.4 28.8 0 -11.9005
282 2 40 27.2 1.6 -9.90051
315 3 41.6 28.8 0 -11.5682
284 3 43.2 27.2 1.6 -11.4367
317 3 44.8 28.8 0 -11.4622
286 3 46.4 27.2 1.6 -11.499
319 3 48 28.8 0 -11.6035
288 3 49.6 27.2 1.6 -11.6446
290 1 1.6 30.4 1.6 -11.7644
321 2 0 32 0 -9.88807
292 3 4.8 30.4 1.6 -11.1595
323 1 3.2 32 0 -11.6412
294 1 8 30.4 1.6 -11.8261
325 3 6.4 32 0 -11.4557
296 3 11.2 30.4 1.6 -11.5109
327 3 9.6 32 0 -11.6337
298 1 14.4 30.4 1.6 -11.8262
329 3 12.8 32 0 -11.4894
300 3 17.6 30.4 1.6 -11.2986
331 1 16 32 0 -11.6132
302 3 20.8 30.4 1.6 -11.4162
333 3 19.2 32 0 -11.5344
304 1 24 30.4 1.6 -11.5735
335 3 22.4 32 0 -11.3605
337 3 25.6 32 0 -11.2716
306 2 27.2 30.4 1.6 -9.95559
339 3 28.8 32 0 -11.5554
308 3 30.4 30.4 1.6 -11.5207
341 3 32 32 0 -11.4602
310 1 33.6 30.4 1.6 -11.7701
343 2 35.2 32 0 -9.80273
312 1 36.8 30.4 1.6 -11.748
345 3 38.4 32 0 -11.4776
314 3 40 30.4 1.6 -11.559
347 3 41.6 32 0 -11.5111
316 3 43.2 30.4 1.6 -11.553
349 1 44.8 32 0 -11.8359
318 3 46.4 30.4 1.6 -11.4485
351 3 48 32 0 -11.5595
320 3 49.6 30.4 1.6 -11.6123
322 3 1.6 33.6 1.6 -10.9741
353 1 0 35.2 0 -11.7829
324 1 4.8 33.6 1.6 -11.7473
355 1 3.2 35.2 0 -11.7443
326 1 8 33.6 1.6 -11.9472
357 3 6.4 35.2 0 -11.4259
328 3 11.2 33.6 1.6 -11.5802
359 3 9.6 35.2 0 -11.3964
330 3 14.4 33.6 1.6 -11.397
361 1 12.8 35.2 0 -11.8705
332 2 17.6 33.6 1.6 -10.0045
363 3 16 35.2 0 -11.2201
334 3 20.8 33.6 1.6 -11.6143
365 2 19.2 35.2 0 -9.96658
336 3 24 33.6 1.6 -11.3419
367 3 22.4 35.2 0 -11.4841
369 1 25.6 35.2 0 -11.7687
338 3 27.2 33.6 1.6 -11.5014
371 2 28.8 35.2 0 -9.8995
340 3 30.4 33.6 1.6 -11.4415
373 2 32 35.2 0 -9.88976
342 1 33.6 33.6 1.6 -11.8405
375 3 35.2 35.2 0 -11.4596
344 1 36.8 33.6 1.6 -11.8579
377 3 38.4 35.2 0 -11.4912
346 3 40 33.6 1.6 -11.5919
379 1 41.6 35.2 0 -11.9397
348 3 43.2 33.6 1.6 -11.3486
381 1 44.8 35.2 0 -11.8201
350 1 46.4 33.6 1.6 -11.6813
383 3 48 35.2 0 -11.3415
352 3 49.6 33.6 1.6 -11.4988
354 3 1.6 36.8 1.6 -11.4811
385 3 0 38.4 0 -11.3712
356 3 4.8 36.8 1.6 -11.4557
387 3 3.2 38.4 0 -11.4313
358 2 8 36.8 1.6 -9.91998
389 3 6.4 38.4 0 -11.4936
360 3 11.2 36.8 1.6 -11.469
391 1 9.6 38.4 0 -11.812
362 3 14.4 36.8 1.6 -11.5919
393 3 12.8 38.4 0 -11.4607
364 3 17.6 36.8 1.6 -11.3886
395 2 16 38.4 0 -9.94539
366 3 20.8 36.8 1.6 -11.5077
397 2 19.2 38.4 0 -9.76066
368 1 24 36.8 1.6 -11.8211
399 3 22.4 38.4 0 -11.37
401 1 25.6 38.4 0 -11.7174
370 1 27.2 36.8 1.6 -11.6797
403 3 28.8 38.4 0 -11.049
372 1 30.4 36.8 1.6 -11.7512
405 1 32 38.4 0 -11.7803
374 3 33.6 36.8 1.6 -11.5023
407 3 35.2 38.4 0 -11.6149
376 3 36.8 36.8 1.6 -11.5441
409 3 38.4 38.4 0 -11.567
378 2 40 36.8 1.6 -10.005
411 3 41.6 38.4 0 -11.342
380 2 43.2 36.8 1.6 -10.0059
413 3 44.8 38.4 0 -11.4156
382 3 46.4 36.8 1.6 -11.2667
415 1 48 38.4 0 -11.8375
384 3 49.6 36.8 1.6 -11.3992
386 1 1.6 40 1.6 -11.9054
417 3 0 41.6 0 -11.6346
388 3 4.8 40 1.6 -11.4996
419 3 3.2 41.6 0 -11.4099
390 1 8 40 1.6 -11.8025
421 3 6.4 41.6 0 -11.5369
392 1 11.2 40 1.6 -11.8157
423 3 9.6 41.6 0 -11.4362
394 3 14.4 40 1.6 -11.5445
425 3 12.8 41.6 0 -11.6342
396 1 17.6 40 1.6 -11.5977
427 3 16 41.6 0 -11.3587
398 2 20.8 40 1.6 -9.76785
429 1 19.2 41.6 0 -11.4778
400 3 24 40 1.6 -11.3161
431 1 22.4 41.6 0 -11.722
433 3 25.6 41.6 0 -11.1868
402 3 27.2 40 1.6 -11.2794
435 1 28.8 41.6 0 -11.6527
404 3 30.4 40 1.6 -11.2526
437 3 32 41.6 0 -11.5084
406 3 33.6 40 1.6 -11.6041
439 3 35.2 41.6 0 -11.5801
408 1 36.8 40 1.6 -11.8288
441 3 38.4 41.6 0 -11.4436
410 1 40 40 1.6 -11.8204
443 1 41.6 41.6 0 -11.7349
412 2 43.2 40 1.6 -9.82835
445 3 44.8 41.6 0 -11.2996
414 1 46.4 40 1.6 -11.9111
447 3 48 41.6 0 -11.4235
416 3 49.6 40 1.6 -11.5376
418 3 1.6 43.2 1.6 -11.484
449 3 0 44.8 0 -11.5669
420 3 4.8 43.2 1.6 -11.5356
451 3 3.2 44.8 0 -11.5858
422 3 8 43.2 1.6 -11.4605
453 2 6.4 44.8 0 -9.94425
424 1 11.2 43.2 1.6 -11.8682
455 3 9.6 44.8 0 -11.5199
426 3 14.4 43.2 1.6 -11.462
457 3 12.8 44.8 0 -11.5668
428 1 17.6 43.2 1.6 -11.8217
459 2 16 44.8 0 -10.042
430 3 20.8 43.2 1.6 -11.3337
461 3 19.2 44.8 0 -11.506
432 3 24 43.2 1.6 -11.5364
463 3 22.4 44.8 0 -11.368
465 1 25.6 44.8 0 -11.5374
434 1 27.2 43.2 1.6 -11.6404
467 3 28.8 44.8 0 -11.2116
436 1 30.4 43.2 1.6 -11.8364
469 3 32 44.8 0 -11.6062
438 3 33.6 43.2 1.6 -11.5764
471 3 35.2 44.8 0 -11.4533
440 1 36.8 43.2 1.6 -11.9054
473 3 38.4 44.8 0 -11.5562
442 3 40 43.2 1.6 -11.3525
475 3 41.6 44.8 0 -11.4745
444 1 43.2 43.2 1.6 -11.7948
477 3 44.8 44.8 0 -11.5145
446 3 46.4 43.2 1.6 -11.3855
479 1 48 44.8 0 -11.9019
448 3 49.6 43.2 1.6 -11.6196
450 3 1.6 46.4 1.6 -11.5669
481 3 0 48 0 -11.5996
452 3 4.8 46.4 1.6 -11.4742
483 2 3.2 48 0 -10.0267
454 1 8 46.4 1.6 -11.8292
485 3 6.4 48 0 -11.3879
456 2 11.2 46.4 1.6 -9.91736
487 2 9.6 48 0 -9.87702
458 3 14.4 46.4 1.6 -11.5948
489 3 12.8 48 0 -11.4963
460 3 17.6 46.4 1.6 -11.5351
491 1 16 48 0 -11.9235
462 3 20.8 46.4 1.6 -11.5004
493 3 19.2 48 0 -11.2835
464 3 24 46.4 1.6 -11.3744
495 1 22.4 48 0 -11.6884
497 1 25.6 48 0 -11.6924
466 1 27.2 46.4 1.6 -11.7689
499 3 28.8 48 0 -11.5284
468 3 30.4 46.4 1.6 -11.4399
501 3 32 48 0 -11.5018
470 3 33.6 46.4 1.6 -11.5475
503 1 35.2 48 0 -11.786
472 1 36.8 46.4 1.6 -11.9248
505 2 38.4 48 0 -10.0069
474 3 40 46.4 1.6 -11.5204
507 2 41.6 48 0 -10.074
476 3 43.2 46.4 1.6 -11.6053
509 3 44.8 48 0 -11.5441
478 3 46.4 46.4 1.6 -11.5924
511 3 48 48 0 -11.4874
480 3 49.6 46.4 1.6 -11.6292
482 2 1.6 49.6 1.6 -10.0762
484 3 4.8 49.6 1.6 -11.4951
486 1 8 49.6 1.6 -11.6752
488 2 11.2 49.6 1.6 -9.8818
490 3 14.4 49.6 1.6 -11.6475
492 3 17.6 49.6 1.6 -11.503
494 1 20.8 49.6 1.6 -11.7034
496 3 24 49.6 1.6 -11.1782
498 3 27.2 49.6 1.6 -11.4888
500 3 30.4 49.6 1.6 -11.6913
502 3 33.6 49.6 1.6 -11.4893
504 3 36.8 49.6 1.6 -11.5461
506 3 40 49.6 1.6 -11.6534
508 3 43.2 49.6 1.6 -11.4839
510 3 46.4 49.6 1.6 -11.4898
512 2 49.6 49.6 1.6 -9.99153
513 3 0 0 3.2 -11.5906
514 3 1.6 1.6 4.8 -11.5921
515 3 3.2 0 3.2 -11.5816
516 3 4.8 1.6 4.8 -11.6057
517 3 6.4 0 3.2 -11.4472
518 3 8 1.6 4.8 -11.4123
519 1 9.6 0 3.2 -11.6895
520 3 11.2 1.6 4.8 -11.4819
521 3 12.8 0 3.2 -11.5667
522 2 14.4 1.6 4.8 -10.0443
523 3 16 0 3.2 -11.6025
524 1 17.6 1.6 4.8 -11.8924
525 1 19.2 0 3.2 -11.7493
526 1 20.8 1.6 4.8 -11.7951
527 1 22.4 0 3.2 -11.5812
528 1 24 1.6 4.8 -11.722
529 2 25.6 0 3.2 -9.8532
530 3 27.2 1.6 4.8 -11.4425
531 3 28.8 0 3.2 -11.6562
532 3 30.4 1.6 4.8 -11.6389
533 3 32 0 3.2 -11.656
534 3 33.6 1.6 4.8 -11.6086
535 3 35.2 0 3.2 -11.6148
536 3 36.8 1.6 4.8 -11.6678
537 3 38.4 0 3.2 -11.6703
538 3 40 1.6 4.8 -11.4849
539 3 41.6 0 3.2 -11.4161
540 1 43.2 1.6 4.8 -11.7821
541 1 44.8 0 3.2 -11.718
542 3 46.4 1.6 4.8 -11.4893
543 1 48 0 3.2 -11.839
544 3 49.6 1.6 4.8 -11.5847
545 3 0 3.2 3.2 -11.3737
546 1 1.6 4.8 4.8 -11.8172
547 1 3.2 3.2 3.2 -11.6792
548 3 4.8 4.8 4.8 -11.385
549 3 6.4 3.2 3.2 -11.3571
550 1 8 4.8 4.8 -11.8552
551 1 9.6 3.2 3.2 -11.8525
552 3 11.2 4.8 4.8 -11.5337
553 3 12.8 3.2 3.2 -11.605
554 3 14.4 4.8 4.8 -11.4277
555 3 16 3.2 3.2 -11.4374
556 1 17.6 4.8 4.8 -11.8148
557 3 19.2 3.2 3.2 -11.3117
558 3 20.8 4.8 4.8 -11.3622
559 3 22.4 3.2 3.2 -11.4772
560 3 24 4.8 4.8 -11.535
561 3 25.6 3.2 3.2 -11.504
562 3 27.2 4.8 4.8 -11.6152
563 3 28.8 3.2 3.2 -11.643
564 1 30.4 4.8 4.8 -11.9223
565 3 32 3.2 3.2 -11.5414
566 2 33.6 4.8 4.8 -9.90037
567 3 35.2 3.2 3.2 -11.5794
568 3 36.8 4.8 4.8 -11.4229
569 3 38.4 3.2 3.2 -11.5103
570 3 40 4.8 4.8 -11.5243
571 1 41.6 3.2 3.2 -11.8783
572 3 43.2 4.8 4.8 -11.6025
573 2 44.8 3.2 3.2 -9.85768
574 3 46.4 4.8 4.8 -11.6424
575 3 48 3.2 3.2 -11.3838
576 3 49.6 4.8 4.8 -11.3388
577 1 0 6.4 3.2 -11.6633
578 1 1.6 8 4.8 -11.7091
579 3 3.2 6.4 3.2 -11.1837
580 3 4.8 8 4.8 -11.3144
581 3 6.4 6.4 3.2 -11.3824
582 1 8 8 4.8 -11.7405
583 2 9.6 6.4 3.2 -9.74236
584 1 11.2 8 4.8 -11.7932
585 3 12.8 6.4 3.2 -11.5061
586 1 14.4 8 4.8 -11.7291
587 1 16 6.4 3.2 -11.776
588 2 17.6 8 4.8 -9.67714
589 1 19.2 6.4 3.2 -11.7175
590 3 20.8 8 4.8 -11.2547
591 3 22.4 6.4 3.2 -11.5244
592 3 24 8 4.8 -11.5912
593 3 25.6 6.4 3.2 -11.6772
594 3 27.2 8 4.8 -11.6231
595 3 28.8 6.4 3.2 -11.5092
596 2 30.4 8 4.8 -10.0295
597 2 32 6.4 3.2 -9.94715
598 3 33.6 8 4.8 -11.3541
599 1 35.2 6.4 3.2 -11.6428
600 1 36.8 8 4.8 -11.5204
601 1 38.4 6.4 3.2 -11.7709
602 1 40 8 4.8 -11.7263
603 3 41.6 6.4 3.2 -11.3469
604 3 43.2 8 4.8 -11.484
605 3 44.8 6.4 3.2 -11.5804
606 3 46.4 8 4.8 -11.5731
607 1 48 6.4 3.2 -11.8985
608 2 49.6 8 4.8 -9.87506
609 1 0 9.6 3.2 -11.5074
610 1 1.6 11.2 4.8 -11.5739
611 3 3.2 9.6 3.2 -11.4021
612 1 4.8 11.2 4.8 -11.8187
613 3 6.4 9.6 3.2 -11.394
614 3 8 11.2 4.8 -11.3831
615 1 9.6 9.6 3.2 -11.783
616 3 11.2 11.2 4.8 -11.4937
617 3 12.8 9.6 3.2 -11.4327
618 2 14.4 11.2 4.8 -9.89636
619 2 16 9.6 3.2 -9.74279
620 3 17.6 11.2 4.8 -11.2962
621 1 19.2 9.6 3.2 -11.7148
622 1 20.8 11.2 4.8 -11.647
623 3 22.4 9.6 3.2 -11.3217
624 3 24 11.2 4.8 -11.5161
625 2 25.6 9.6 3.2 -9.99612
626 3 27.2 11.2 4.8 -11.6144
627 1 28.8 9.6 3.2 -11.9544
628 3 30.4 11.2 4.8 -11.5915
629 3 32 9.6 3.2 -11.4631
630 3 33.6 11.2 4.8 -11.5325
631 1 35.2 9.6 3.2 -11.6208
632 1 36.8 11.2 4.8 -11.6857
633 3 38.4 9.6 3.2 -10.7797
634 1 40 11.2 4.8 -11.6058
635 1 41.6 9.6 3.2 -11.7641
636 2 43.2 11.2 4.8 -9.79622
637 3 44.8 9.6 3.2 -11.3979
638 2 46.4 11.2 4.8 -9.7861
639 3 48 9.6 3.2 -11.3622
640 1 49.6 11.2 4.8 -11.4953
641 1 0 12.8 3.2 -11.6153
642 2 1.6 14.4 4.8 -9.8596
643 3 3.2 12.8 3.2 -11.3608
644 3 4.8 14.4 4.8 -11.4063
645 3 6.4 12.8 3.2 -11.5232
646 1 8 14.4 4.8 -11.9984
647 3 9.6 12.8 3.2 -11.5851
648 3 11.2 14.4 4.8 -11.3985
649 3 12.8 12.8 3.2 -11.4407
650 1 14.4 14.4 4.8 -11.8939
651 1 16 12.8 3.2 -11.8099
652 3 17.6 14.4 4.8 -11.5135
653 3 19.2 12.8 3.2 -11.0176
654 1 20.8 14.4 4.8 -11.7766
655 1 22.4 12.8 3.2 -11.7299
656 3 24 14.4 4.8 -11.3018
657 1 25.6 12.8 3.2 -11.934
658 3 27.2 14.4 4.8 -11.5179
659 3 28.8 12.8 3.2 -11.5233
660 3 30.4 14.4 4.8 -11.6092
661 3 32 12.8 3.2 -11.6064
662 3 33.6 14.4 4.8 -11.5959
663 3 35.2 12.8 3.2 -11.4442
664 2 36.8 14.4 4.8 -9.99728
665 3 38.4 12.8 3.2 -11.4704
666 3 40 14.4 4.8 -11.4172
667 1 41.6 12.8 3.2 -11.6851
668 2 43.2 14.4 4.8 -9.84475
669 1 44.8 12.8 3.2 -11.6973
670 1 46.4 14.4 4.8 -11.6842
671 1 48 12.8 3.2 -11.6495
672 3 49.6 14.4 4.8 -11.1189
673 3 0 16 3.2 -11.4072
674 3 1.6 17.6 4.8 -11.5341
675 3 3.2 16 3.2 -11.5459
676 2 4.8 17.6 4.8 -10.0319
677 2 6.4 16 3.2 -10.0152
678 3 8 17.6 4.8 -11.3505
679 3 9.6 16 3.2 -11.3581
680 1 11.2 17.6 4.8 -11.8543
681 3 12.8 16 3.2 -11.4335
682 3 14.4 17.6 4.8 -11.4741
683 3 16 16 3.2 -11.5841
684 3 17.6 17.6 4.8 -11.6151
685 3 19.2 16 3.2 -11.5804
686 3 20.8 17.6 4.8 -11.4782
687 3 22.4 16 3.2 -11.4525
688 1 24 17.6 4.8 -11.8958
689 1 25.6 16 3.2 -11.8914
690 3 27.2 17.6 4.8 -11.3529
691 2 28.8 16 3.2 -10.0422
692 1 30.4 17.6 4.8 -11.9403
693 3 32 16 3.2 -11.5375
694 2 33.6 17.6 4.8 -9.86284
695 3 35.2 16 3.2 -11.5202
696 3 36.8 17.6 4.8 -11.5442
697 2 38.4 16 3.2 -10.0641
698 1 40 17.6 4.8 -11.9873
699 3 41.6 16 3.2 -11.3567
700 3 43.2 17.6 4.8 -11.4811
701 1 44.8 16 3.2 -11.8089
702 3 46.4 17.6 4.8 -11.5073
703 3 48 16 3.2 -11.5125
704 1 49.6 17.6 4.8 -11.8783
705 1 0 19.2 3.2 -11.8523
706 3 1.6 20.8 4.8 -11.4429
707 3 3.2 19.2 3.2 -11.4919
708 3 4.8 20.8 4.8 -11.2187
709 3 6.4 19.2 3.2 -11.097
710 1 8 20.8 4.8 -11.6731
711 1 9.6 19.2 3.2 -11.5286
712 2 11.2 20.8 4.8 -9.72972
713 3 12.8 19.2 3.2 -11.3562
714 3 14.4 20.8 4.8 -11.5833
715 3 16 19.2 3.2 -11.5485
716 3 17.6 20.8 4.8 -11.4983
717 1 19.2 19.2 3.2 -12.0156
718 3 20.8 20.8 4.8 -11.4535
719 3 22.4 19.2 3.2 -11.5489
720 3 24 20.8 4.8 -11.487
721 3 25.6 19.2 3.2 -11.3716
722 1 27.2 20.8 4.8 -11.8187
723 3 28.8 19.2 3.2 -11.479
724 3 30.4 20.8 4.8 -11.3785
725 2 32 19.2 3.2 -9.99536
726 1 33.6 20.8 4.8 -11.7514
727 3 35.2 19.2 3.2 -11.5013
728 3 36.8 20.8 4.8 -11.3538
729 3 38.4 19.2 3.2 -11.4402
730 3 40 20.8 4.8 -11.4844
731 3 41.6 19.2 3.2 -11.557
732 1 43.2 20.8 4.8 -11.8891
733 1 44.8 19.2 3.2 -11.7941
734 3 46.4 20.8 4.8 -11.2191
735 3 48 19.2 3.2 -11.2755
736 1 49.6 20.8 4.8 -11.744
737 1 0 22.4 3.2 -11.7935
738 1 1.6 24 4.8 -11.8372
739 1 3.2 22.4 3.2 -11.7464
740 1 4.8 24 4.8 -11.7461
741 1 6.4 22.4 3.2 -11.6462
742 3 8 24 4.8 -11.1513
743 3 9.6 22.4 3.2 -11.0645
744 1 11.2 24 4.8 -11.7043
745 1 12.8 22.4 3.2 -11.827
746 3 14.4 24 4.8 -11.392
747 1 16 22.4 3.2 -11.9084
748 2 17.6 24 4.8 -9.89257
749 1 19.2 22.4 3.2 -11.8423
750 1 20.8 24 4.8 -11.6764
751 3 22.4 22.4 3.2 -11.4346
752 3 24 24 4.8 -11.2745
753 1 25.6 22.4 3.2 -11.7316
754 1 27.2 24 4.8 -11.7852
755 3 28.8 22.4 3.2 -11.4532
756 3 30.4 24 4.8 -11.6149
757 1 32 22.4 3.2 -11.9642
758 3 33.6 24 4.8 -11.4979
759 3 35.2 22.4 3.2 -11.3328
760 2 36.8 24 4.8 -9.88891
761 1 38.4 22.4 3.2 -11.8091
762 3 40 24 4.8 -11.334
763 3 41.6 22.4 3.2 -11.4896
764 3 43.2 24 4.8 -11.3995
765 1 44.8 22.4 3.2 -11.7306
766 1 46.4 24 4.8 -11.7476
767 1 48 22.4 3.2 -11.7746
768 3 49.6 24 4.8 -11.3532
769 3 0 25.6 3.2 -11.5577
771 3 3.2 25.6 3.2 -11.39
773 3 6.4 25.6 3.2 -11.3674
775 3 9.6 25.6 3.2 -11.3868
777 1 12.8 25.6 3.2 -11.7822
779 2 16 25.6 3.2 -9.94891
781 1 19.2 25.6 3.2 -11.6379
783 3 22.4 25.6 3.2 -11.2325
785 1 25.6 25.6 3.2 -11.7763
787 3 28.8 25.6 3.2 -11.6155
789 3 32 25.6 3.2 -11.5536
791 1 35.2 25.6 3.2 -11.9372
793 1 38.4 25.6 3.2 -11.7156
795 3 41.6 25.6 3.2 -11.3385
797 1 44.8 25.6 3.2 -11.7629
799 3 48 25.6 3.2 -11.4438
770 3 1.6 27.2 4.8 -11.4987
801 2 0 28.8 3.2 -10.0718
772 1 4.8 27.2 4.8 -11.8388
803 3 3.2 28.8 3.2 -11.3041
774 3 8 27.2 4.8 -11.3122
805 1 6.4 28.8 3.2 -11.7161
776 1 11.2 27.2 4.8 -11.6981
807 3 9.6 28.8 3.2 -11.389
778 3 14.4 27.2 4.8 -11.4714
809 3 12.8 28.8 3.2 -11.4519
780 3 17.6 27.2 4.8 -11.422
811 3 16 28.8 3.2 -11.4283
782 1 20.8 27.2 4.8 -11.6728
813 2 19.2 28.8 3.2 -9.93734
784 3 24 27.2 4.8 -11.3852
815 1 22.4 28.8 3.2 -11.6478
817 3 25.6 28.8 3.2 -11.2139
786 3 27.2 27.2 4.8 -11.4711
819 3 28.8 28.8 3.2 -11.5581
788 3 30.4 27.2 4.8 -11.534
821 2 32 28.8 3.2 -10.0084
790 3 33.6 27.2 4.8 -11.6055
823 1 35.2 28.8 3.2 -11.762
792 3 36.8 27.2 4.8 -11.2079
825 3 38.4 28.8 3.2 -11.2535
794 1 40 27.2 4.8 -11.7445
827 1 41.6 28.8 3.2 -11.8343
796 1 43.2 27.2 4.8 -11.751
829 1 44.8 28.8 3.2 -11.8288
798 2 46.4 27.2 4.8 -9.92384
831 3 48 28.8 3.2 -11.5769
800 2 49.6 27.2 4.8 -10.0774
802 3 1.6 30.4 4.8 -11.4935
833 2 0 32 3.2 -9.95167
804 3 4.8 30.4 4.8 -11.3863
835 2 3.2 32 3.2 -9.90024
806 1 8 30.4 4.8 -11.7504
837 3 6.4 32 3.2 -11.3954
808 3 11.2 30.4 4.8 -11.3118
839 3 9.6 32 3.2 -11.5339
810 3 14.4 30.4 4.8 -11.4522
841 3 12.8 32 3.2 -11.5686
812 1 17.6 30.4 4.8 -11.8678
843 1 16 32 3.2 -11.8547
814 3 20.8 30.4 4.8 -11.2211
845 3 19.2 32 3.2 -11.4082
816 1 24 30.4 4.8 -11.6491
847 1 22.4 32 3.2 -11.6867
849 1 25.6 32 3.2 -11.7933
818 3 27.2 30.4 4.8 -11.3698
851 3 28.8 32 3.2 -11.4049
820 1 30.4 30.4 4.8 -11.8383
853 3 32 32 3.2 -11.5031
822 3 33.6 30.4 4.8 -11.3407
855 2 35.2 32 3.2 -9.83166
824 1 36.8 30.4 4.8 -11.784
857 3 38.4 32 3.2 -11.5049
826 3 40 30.4 4.8 -11.4607
859 3 41.6 32 3.2 -11.5542
828 3 43.2 30.4 4.8 -11.4878
861 1 44.8 32 3.2 -11.8562
830 3 46.4 30.4 4.8 -11.5657
863 3 48 32 3.2 -11.4489
832 3 49.6 30.4 4.8 -11.5363
834 1 1.6 33.6 4.8 -11.7507
865 1 0 35.2 3.2 -11.8002
836 2 4.8 33.6 4.8 -9.87134
867 1 3.2 35.2 3.2 -11.7264
838 3 8 33.6 4.8 -11.4388
869 2 6.4 35.2 3.2 -9.99972
840 3 11.2 33.6 4.8 -11.465
871 3 9.6 35.2 3.2 -11.4941
842 3 14.4 33.6 4.8 -11.616
873 2 12.8 35.2 3.2 -10.0421
844 3 17.6 33.6 4.8 -11.3083
875 3 16 35.2 3.2 -11.4333
846 3 20.8 33.6 4.8 -11.5676
877 1 19.2 35.2 3.2 -11.9083
848 2 24 33.6 4.8 -9.96954
879 3 22.4 35.2 3.2 -11.5127
881 3 25.6 35.2 3.2 -11.3133
850 3 27.2 33.6 4.8 -11.3671
883 1 28.8 35.2 3.2 -11.7529
852 1 30.4 33.6 4.8 -11.8377
885 3 32 35.2 3.2 -11.4667
854 3 33.6 33.6 4.8 -11.4878
887 2 35.2 35.2 3.2 -10.0463
856 3 36.8 33.6 4.8 -11.3889
889 3 38.4 35.2 3.2 -11.5674
858 3 40 33.6 4.8 -11.5854
891 3 41.6 35.2 3.2 -11.5202
860 3 43.2 33.6 4.8 -11.6338
893 1 44.8 35.2 3.2 -11.7575
862 3 46.4 33.6 4.8 -11.386
895 1 48 35.2 3.2 -11.7487
864 3 49.6 33.6 4.8 -11.3209
866 3 1.6 36.8 4.8 -11.3459
897 3 0 38.4 3.2 -11.536
868 3 4.8 36.8 4.8 -11.5472
899 3 3.2 38.4 3.2 -11.4617
870 2 8 36.8 4.8 -9.96962
901 3 6.4 38.4 3.2 -11.5812
872 1 11.2 36.8 4.8 -11.9366
903 3 9.6 38.4 3.2 -11.3389
874 3 14.4 36.8 4.8 -11.5247
905 3 12.8 38.4 3.2 -11.6059
876 1 17.6 36.8 4.8 -11.787
907 3 16 38.4 3.2 -11.4978
878 3 20.8 36.8 4.8 -11.5607
909 1 19.2 38.4 3.2 -11.6896
880 3 24 36.8 4.8 -11.4144
911 2 22.4 38.4 3.2 -9.97272
913 3 25.6 38.4 3.2 -11.2854
882 1 27.2 36.8 4.8 -11.7873
915 3 28.8 38.4 3.2 -11.2857
884 3 30.4 36.8 4.8 -11.3377
917 2 32 38.4 3.2 -10.0122
886 3 33.6 36.8 4.8 -11.6752
919 3 35.2 38.4 3.2 -11.601
888 3 36.8 36.8 4.8 -11.5821
921 3 38.4 38.4 3.2 -11.4601
890 2 40 36.8 4.8 -10.0041
923 2 41.6 38.4 3.2 -10.009
892 3 43.2 36.8 4.8 -11.5123
925 3 44.8 38.4 3.2 -11.5305
894 1 46.4 36.8 4.8 -11.8263
927 3 48 38.4 3.2 -11.4255
896 1 49.6 36.8 4.8 -11.8268
898 1 1.6 40 4.8 -11.7097
929 3 0 41.6 3.2 -11.3614
900 2 4.8 40 4.8 -9.87227
931 1 3.2 41.6 3.2 -11.6525
902 1 8 40 4.8 -11.8933
933 3 6.4 41.6 3.2 -11.4019
904 3 11.2 40 4.8 -11.3633
935 1 9.6 41.6 3.2 -11.7532
906 3 14.4 40 4.8 -11.5571
937 3 12.8 41.6 3.2 -11.4175
908 1 17.6 40 4.8 -11.7833
939 3 16 41.6 3.2 -11.4769
910 3 20.8 40 4.8 -11.2327
941 1 19.2 41.6 3.2 -11.6504
912 1 24 40 4.8 -11.7326
943 1 22.4 41.6 3.2 -11.8331
945 3 25.6 41.6 3.2 -11.3875
914 1 27.2 40 4.8 -11.6854
947 1 28.8 41.6 3.2 -11.6489
916 1 30.4 40 4.8 -11.8991
949 3 32 41.6 3.2 -11.5579
918 3 33.6 40 4.8 -11.5325
951 3 35.2 41.6 3.2 -11.5234
920 1 36.8 40 4.8 -11.9058
953 1 38.4 41.6 3.2 -11.7585
922 3 40 40 4.8 -11.4413
955 2 41.6 41.6 3.2 -9.83068
924 3 43.2 40 4.8 -11.4964
957 3 44.8 41.6 3.2 -11.4872
926 3 46.4 40 4.8 -11.5001
959 2 48 41.6 3.2 -10.0725
928 3 49.6 40 4.8 -11.5341
930 1 1.6 43.2 4.8 -11.5426
961 1 0 44.8 3.2 -11.8082
932 1 4.8 43.2 4.8 -11.6825
963 3 3.2 44.8 3.2 -11.3009
934 3 8 43.2 4.8 -11.4622
965 3 6.4 44.8 3.2 -11.5828
936 3 11.2 43.2 4.8 -11.4953
967 3 9.6 44.8 3.2 -11.4102
938 1 14.4 43.2 4.8 -11.9298
969 1 12.8 44.8 3.2 -11.8885
940 3 17.6 43.2 4.8 -11.3704
971 3 16 44.8 3.2 -11.5238
942 3 20.8 43.2 4.8 -11.6074
973 3 19.2 44.8 3.2 -11.5843
944 3 24 43.2 4.8 -11.5042
975 3 22.4 44.8 3.2 -11.5769
977 3 25.6 44.8 3.2 -11.466
946 1 27.2 43.2 4.8 -11.7979
979 3 28.8 44.8 3.2 -11.2254
948 3 30.4 43.2 4.8 -11.2402
981 3 32 44.8 3.2 -11.5839
950 3 33.6 43.2 4.8 -11.6785
983 3 35.2 44.8 3.2 -11.6471
952 3 36.8 43.2 4.8 -11.5119
985 3 38.4 44.8 3.2 -11.3745
954 3 40 43.2 4.8 -11.4193
987 1 41.6 44.8 3.2 -11.8034
956 1 43.2 43.2 4.8 -11.8245
989 3 44.8 44.8 3.2 -11.471
958 1 46.4 43.2 4.8 -11.9179
991 3 48 44.8 3.2 -11.4667
960 2 49.6 43.2 4.8 -9.89308
962 1 1.6 46.4 4.8 -11.7596
993 3 0 48 3.2 -11.5667
964 1 4.8 46.4 4.8 -11.9307
995 2 3.2 48 3.2 -10.0529
966 3 8 46.4 4.8 -11.4747
997 3 6.4 48 3.2 -11.4512
968 3 11.2 46.4 4.8 -11.4684
999 1 9.6 48 3.2 -11.6029
970 3 14.4 46.4 4.8 -11.4156
1001 2 12.8 48 3.2 -9.90753
972 1 17.6 46.4 4.8 -12.0308
1003 3 16 48 3.2 -11.5922
974 3 20.8 46.4 4.8 -11.5816
1005 3 19.2 48 3.2 -11.4582
976 3 24 46.4 4.8 -11.4758
1007 1 22.4 48 3.2 -11.7822
1009 3 25.6 48 3.2 -11.43
978 1 27.2 46.4 4.8 -11.8498
1011 3 28.8 48 3.2 -11.6064
980 1 30.4 46.4 4.8 -11.8534
1013 3 32 48 3.2 -11.652
982 3 33.6 46.4 4.8 -11.4273
1015 3 35.2 48 3.2 -11.5046
984 3 36.8 46.4 4.8 -11.361
1017 3 38.4 48 3.2 -11.5436
986 1 40 46.4 4.8 -11.7856
1019 3 41.6 48 3.2 -11.5437
988 3 43.2 46.4 4.8 -11.3238
1021 3 44.8 48 3.2 -11.5086
990 1 46.4 46.4 4.8 -11.9491
1023 3 48 48 3.2 -11.6029
992 3 49.6 46.4 4.8 -11.4784
994 3 1.6 49.6 4.8 -11.5441
996 3 4.8 49.6 4.8 -11.4993
998 1 8 49.6 4.8 -11.7683
1000 1 11.2 49.6 4.8 -11.7285
1002 3 14.4 49.6 4.8 -11.507
1004 3 17.6 49.6 4.8 -11.4358
1006 2 20.8 49.6 4.8 -9.82067
1008 1 24 49.6 4.8 -11.7893
1010 3 27.2 49.6 4.8 -11.4864
1012 3 30.4 49.6 4.8 -11.5766
1014 1 33.6 49.6 4.8 -11.9782
1016 3 36.8 49.6 4.8 -11.4735
1018 2 40 49.6 4.8 -9.92116
1020 1 43.2 49.6 4.8 -11.8289
1022 3 46.4 49.6 4.8 -11.3711
1024 3 49.6 49.6 4.8 -11.5928
1025 3 0 0 6.4 -11.5591
1026 2 1.6 1.6 8 -9.94664
1027 3 3.2 0 6.4 -11.6344
1028 3 4.8 1.6 8 -11.3895
1029 3 6.4 0 6.4 -11.5211
1030 1 8 1.6 8 -11.6799
1031 3 9.6 0 6.4 -11.3707
1032 1 11.2 1.6 8 -11.8206
1033 3 12.8 0 6.4 -11.5106
1034 3 14.4 1.6 8 -11.5438
1035 3 16 0 6.4 -11.5905
1036 3 17.6 1.6 8 -11.4626
1037 3 19.2 0 6.4 -11.4088
1038 3 20.8 1.6 8 -11.5366
1039 3 22.4 0 6.4 -11.4485
1040 3 24 1.6 8 -11.2972
1041 2 25.6 0 6.4 -9.89458
1042 1 27.2 1.6 8 -11.7557
1043 3 28.8 0 6.4 -11.6231
1044 3 30.4 1.6 8 -11.5475
1045 3 32 0 6.4 -11.6144
1046 3 33.6 1.6 8 -11.6666
1047 3 35.2 0 6.4 -11.5594
1048 3 36.8 1.6 8 -11.4907
1049 3 38.4 0 6.4 -11.3304
1050 1 40 1.6 8 -11.7113
1051 3 41.6 0 6.4 -11.384
1052 3 43.2 1.6 8 -11.4583
1053 3 44.8 0 6.4 -11.342
1054 3 46.4 1.6 8 -11.5803
1055 3 48 0 6.4 -11.511
1056 3 49.6 1.6 8 -11.3777
1057 3 0 3.2 6.4 -11.5482
1058 3 1.6 4.8 8 -11.4061
1059 3 3.2 3.2 6.4 -11.4721
1060 1 4.8 4.8 8 -11.8695
1061 2 6.4 3.2 6.4 -10.059
1062 3 8 4.8 8 -11.3227
1063 3 9.6 3.2 6.4 -11.4265
1064 3 11.2 4.8 8 -11.4207
1065 3 12.8 3.2 6.4 -11.6695
1066 3 14.4 4.8 8 -11.4587
1067 3 16 3.2 6.4 -11.5867
1068 3 17.6 4.8 8 -11.2562
1069 3 19.2 3.2 6.4 -11.5378
1070 1 20.8 4.8 8 -11.8883
1071 3 22.4 3.2 6.4 -11.4467
1072 1 24 4.8 8 -11.8219
1073 1 25.6 3.2 6.4 -11.8043
1074 3 27.2 4.8 8 -11.4547
1075 3 28.8 3.2 6.4 -11.5753
1076 3 30.4 4.8 8 -11.4888
1077 3 32 3.2 6.4 -11.5789
1078 3 33.6 4.8 8 -11.5629
1079 2 35.2 3.2 6.4 -9.99641
1080 3 36.8 4.8 8 -11.527
1081 1 38.4 3.2 6.4 -11.9479
1082 2 40 4.8 8 -9.96006
1083 3 41.6 3.2 6.4 -11.4919
1084 3 43.2 4.8 8 -11.592
1085 3 44.8 3.2 6.4 -11.5918
1086 3 46.4 4.8 8 -11.5086
1087 1 48 3.2 6.4 -11.9786
1088 1 49.6 4.8 8 -11.8637
1089 3 0 6.4 6.4 -11.432
1090 3 1.6 8 8 -11.431
1091 3 3.2 6.4 6.4 -11.5574
1092 1 4.8 8 8 -11.8102
1093 3 6.4 6.4 6.4 -11.3576
1094 3 8 8 8 -11.1536
1095 3 9.6 6.4 6.4 -11.4167
1096 1 11.2 8 8 -11.7248
1097 3 12.8 6.4 6.4 -11.399
1098 1 14.4 8 8 -11.6457
1099 2 16 6.4 6.4 -9.76193
1100 1 17.6 8 8 -11.6345
1101 2 19.2 6.4 6.4 -9.81
1102 2 20.8 8 8 -9.80851
1103 2 22.4 6.4 6.4 -9.95042