ITEM: TIMESTEP
0
ITEM: NUMBER OF ATOMS
8192
ITEM: BOX BOUNDS pp pp pp
0.0000000000000000e+00 5.1200000000000003e+01
0.0000000000000000e+00 5.1200000000000003e+01
0.0000000000000000e+00 5.1200000000000003e+01
ITEM: ATOMS id type x y z c_eng
1 3 0 0 0 -11.5031
2 2 1.6 1.6 1.6 -9.94898
3 3 3.2 0 0 -11.4127
4 1 4.8 1.6 1.6 -11.8722
5 3 6.4 0 0 -11.4429
6 2 8 1.6 1.6 -9.94897
7 3 9.6 0 0 -11.4356
8 3 11.2 1.6 1.6 -11.4798
9 3 12.8 0 0 -11.5235
10 3 14.4 1.6 1.6 -11.4998
11 3 16 0 0 -11.6288
12 1 17.6 1.6 1.6 -11.9575
13 3 19.2 0 0 -11.5378
14 1 20.8 1.6 1.6 -11.9275
15 3 22.4 0 0 -11.3659
16 1 24 1.6 1.6 -11.7647
17 2 25.6 0 0 -9.92657
18 2 27.2 1.6 1.6 -9.92705
19 3 28.8 0 0 -11.5771
20 2 30.4 1.6 1.6 -9.98297
21 3 32 0 0 -11.5842
22 1 33.6 1.6 1.6 -11.9408
23 2 35.2 0 0 -10.0487
24 3 36.8 1.6 1.6 -11.5623
25 3 38.4 0 0 -11.6565
26 3 40 1.6 1.6 -11.5713
27 3 41.6 0 0 -11.5536
28 3 43.2 1.6 1.6 -11.5964
29 3 44.8 0 0 -11.5912
30 2 46.4 1.6 1.6 -10.0149
31 1 48 0 0 -11.7804
32 3 49.6 1.6 1.6 -11.4666
33 3 0 3.2 0 -11.5967
34 3 1.6 4.8 1.6 -11.487
35 3 3.2 3.2 0 -11.3909
36 1 4.8 4.8 1.6 -11.8905
37 3 6.4 3.2 0 -11.3731
38 2 8 4.8 1.6 -9.93375
39 1 9.6 3.2 0 -11.8279
40 3 11.2 4.8 1.6 -11.4304
41 3 12.8 3.2 0 -11.4851
42 1 14.4 4.8 1.6 -11.9532
43 2 16 3.2 0 -9.99947
44 1 17.6 4.8 1.6 -11.8934
45 3 19.2 3.2 0 -11.4804
46 3 20.8 4.8 1.6 -11.4863
47 3 22.4 3.2 0 -11.4592
48 1 24 4.8 1.6 -11.9258
49 2 25.6 3.2 0 -9.9232
50 2 27.2 4.8 1.6 -9.94409
51 3 28.8 3.2 0 -11.5195
52 1 30.4 4.8 1.6 -11.9425
53 2 32 3.2 0 -10.0092
54 3 33.6 4.8 1.6 -11.4294
55 2 35.2 3.2 0 -9.9717
56 3 36.8 4.8 1.6 -11.504
57 2 38.4 3.2 0 -9.98191
58 3 40 4.8 1.6 -11.4562
59 1 41.6 3.2 0 -12.0063
60 3 43.2 4.8 1.6 -11.5491
61 3 44.8 3.2 0 -11.4694
62 3 46.4 4.8 1.6 -11.4664
63 2 48 3.2 0 -10.0051
64 3 49.6 4.8 1.6 -11.5919
65 3 0 6.4 0 -11.5522
66 1 1.6 8 1.6 -11.8756
67 3 3.2 6.4 0 -11.4256
68 1 4.8 8 1.6 -11.9401
69 3 6.4 6.4 0 -11.5202
70 2 8 8 1.6 -9.97225
71 3 9.6 6.4 0 -11.4729
72 3 11.2 8 1.6 -11.5692
73 3 12.8 6.4 0 -11.4812
74 3 14.4 8 1.6 -11.5119
75 2 16 6.4 0 -9.99686
76 2 17.6 8 1.6 -10.0223
77 3 19.2 6.4 0 -11.5521
78 3 20.8 8 1.6 -11.6127
79 3 22.4 6.4 0 -11.5917
80 3 24 8 1.6 -11.4711
81 2 25.6 6.4 0 -10.0246
82 2 27.2 8 1.6 -9.98649
83 2 28.8 6.4 0 -9.97482
84 2 30.4 8 1.6 -9.9957
85 2 32 6.4 0 -9.9322
86 3 33.6 8 1.6 -11.4696
87 3 35.2 6.4 0 -11.6128
88 1 36.8 8 1.6 -11.931
89 3 38.4 6.4 0 -11.4633
90 1 40 8 1.6 -11.9078
91 3 41.6 6.4 0 -11.5365
92 3 43.2 8 1.6 -11.508
93 1 44.8 6.4 0 -11.9878
94 3 46.4 8 1.6 -11.4444
95 3 48 6.4 0 -11.508
96 1 49.6 8 1.6 -11.9038
97 3 0 9.6 0 -11.471
98 1 1.6 11.2 1.6 -11.9539
99 3 3.2 9.6 0 -11.5108
100 2 4.8 11.2 1.6 -9.95318
101 3 6.4 9.6 0 -11.6052
102 1 8 11.2 1.6 -11.9562
103 3 9.6 9.6 0 -11.5632
104 2 11.2 11.2 1.6 -9.97621
105 3 12.8 9.6 0 -11.5728
106 3 14.4 11.2 1.6 -11.5573
107 3 16 9.6 0 -11.4736
108 3 17.6 11.2 1.6 -11.5424
109 3 19.2 9.6 0 -11.5317
110 2 20.8 11.2 1.6 -9.99756
111 1 22.4 9.6 0 -11.9533
112 2 24 11.2 1.6 -9.90769
113 3 25.6 9.6 0 -11.4955
114 3 27.2 11.2 1.6 -11.5732
115 3 28.8 9.6 0 -11.5201
116 3 30.4 11.2 1.6 -11.5446
117 1 32 9.6 0 -11.9523
118 3 33.6 11.2 1.6 -11.6033
119 3 35.2 9.6 0 -11.605
120 3 36.8 11.2 1.6 -11.6148
121 3 38.4 9.6 0 -11.5659
122 3 40 11.2 1.6 -11.4963
123 3 41.6 9.6 0 -11.497
124 2 43.2 11.2 1.6 -9.95163
125 1 44.8 9.6 0 -11.9525
126 2 46.4 11.2 1.6 -9.95984
127 3 48 9.6 0 -11.4995
128 1 49.6 11.2 1.6 -11.8571
129 3 0 12.8 0 -11.5469
130 3 1.6 14.4 1.6 -11.5261
131 2 3.2 12.8 0 -10.0251
132 3 4.8 14.4 1.6 -11.5727
133 3 6.4 12.8 0 -11.5557
134 2 8 14.4 1.6 -9.99469
135 2 9.6 12.8 0 -10.0201
136 3 11.2 14.4 1.6 -11.5535
137 3 12.8 12.8 0 -11.58
138 3 14.4 14.4 1.6 -11.5674
139 3 16 12.8 0 -11.5831
140 3 17.6 14.4 1.6 -11.6448
141 3 19.2 12.8 0 -11.5376
142 3 20.8 14.4 1.6 -11.4611
143 1 22.4 12.8 0 -11.7878
144 3 24 14.4 1.6 -11.3969
145 1 25.6 12.8 0 -11.9584
146 3 27.2 14.4 1.6 -11.6151
147 3 28.8 12.8 0 -11.6151
148 1 30.4 14.4 1.6 -11.9471
149 3 32 12.8 0 -11.4771
150 3 33.6 14.4 1.6 -11.5632
151 3 35.2 12.8 0 -11.6391
152 3 36.8 14.4 1.6 -11.5619
153 3 38.4 12.8 0 -11.5775
154 1 40 14.4 1.6 -11.8453
155 3 41.6 12.8 0 -11.444
156 1 43.2 14.4 1.6 -11.8493
157 2 44.8 12.8 0 -9.94665
158 2 46.4 14.4 1.6 -9.92293
159 2 48 12.8 0 -9.97938
160 2 49.6 14.4 1.6 -10.0002
161 2 0 16 0 -10.0325
162 3 1.6 17.6 1.6 -11.5006
163 1 3.2 16 0 -11.9636
164 3 4.8 17.6 1.6 -11.5892
165 3 6.4 16 0 -11.5424
166 3 8 17.6 1.6 -11.5562
167 3 9.6 16 0 -11.5954
168 3 11.2 17.6 1.6 -11.6467
169 3 12.8 16 0 -11.58
170 3 14.4 17.6 1.6 -11.582
171 3 16 16 0 -11.5347
172 2 17.6 17.6 1.6 -10.0372
173 1 19.2 16 0 -11.948
174 3 20.8 17.6 1.6 -11.3498
175 1 22.4 16 0 -11.8564
176 2 24 17.6 1.6 -9.97902
177 3 25.6 16 0 -11.4997
178 3 27.2 17.6 1.6 -11.544
179 3 28.8 16 0 -11.5609
180 3 30.4 17.6 1.6 -11.511
181 1 32 16 0 -11.9068
182 3 33.6 17.6 1.6 -11.5314
183 1 35.2 16 0 -11.9607
184 3 36.8 17.6 1.6 -11.544
185 3 38.4 16 0 -11.4698
186 2 40 17.6 1.6 -9.95488
187 3 41.6 16 0 -11.4135
188 3 43.2 17.6 1.6 -11.4402
189 3 44.8 16 0 -11.543
190 3 46.4 17.6 1.6 -11.5644
191 3 48 16 0 -11.5613
192 2 49.6 17.6 1.6 -10.0012
193 3 0 19.2 0 -11.5745
194 1 1.6 20.8 1.6 -11.8351
195 3 3.2 19.2 0 -11.6157
196 3 4.8 20.8 1.6 -11.4838
197 3 6.4 19.2 0 -11.5069
198 3 8 20.8 1.6 -11.5174
199 3 9.6 19.2 0 -11.566
200 3 11.2 20.8 1.6 -11.5172
201 1 12.8 19.2 0 -11.9144
202 3 14.4 20.8 1.6 -11.4758
203 1 16 19.2 0 -11.9533
204 3 17.6 20.8 1.6 -11.5562
205 1 19.2 19.2 0 -11.9213
206 3 20.8 20.8 1.6 -11.527
207 1 22.4 19.2 0 -11.9057
208 3 24 20.8 1.6 -11.4457
209 2 25.6 19.2 0 -9.97382
210 3 27.2 20.8 1.6 -11.5465
211 3 28.8 19.2 0 -11.6457
212 3 30.4 20.8 1.6 -11.634
213 3 32 19.2 0 -11.5889
214 2 33.6 20.8 1.6 -10.0353
215 3 35.2 19.2 0 -11.5533
216 1 36.8 20.8 1.6 -12.0096
217 3 38.4 19.2 0 -11.5797
218 2 40 20.8 1.6 -9.97154
219 3 41.6 19.2 0 -11.4864
220 1 43.2 20.8 1.6 -11.8604
221 3 44.8 19.2 0 -11.5459
222 1 46.4 20.8 1.6 -11.8875
223 3 48 19.2 0 -11.6054
224 2 49.6 20.8 1.6 -9.89124
225 2 0 22.4 0 -10.0003
226 1 1.6 24 1.6 -11.8421
227 3 3.2 22.4 0 -11.4016
228 3 4.8 24 1.6 -11.4776
229 1 6.4 22.4 0 -11.8771
230 3 8 24 1.6 -11.5055
231 3 9.6 22.4 0 -11.4682
232 3 11.2 24 1.6 -11.5945
233 2 12.8 22.4 0 -9.949
234 3 14.4 24 1.6 -11.4746
235 3 16 22.4 0 -11.4748
236 2 17.6 24 1.6 -9.96163
237 3 19.2 22.4 0 -11.557
238 2 20.8 24 1.6 -10.0325
239 3 22.4 22.4 0 -11.4996
240 3 24 24 1.6 -11.493
241 1 25.6 22.4 0 -11.9886
242 3 27.2 24 1.6 -11.5961
243 3 28.8 22.4 0 -11.6174
244 3 30.4 24 1.6 -11.6672
245 3 32 22.4 0 -11.6091
246 3 33.6 24 1.6 -11.6443
247 3 35.2 22.4 0 -11.5803
248 3 36.8 24 1.6 -11.5671
249 3 38.4 22.4 0 -11.6037
250 3 40 24 1.6 -11.5204
251 3 41.6 22.4 0 -11.5674
252 3 43.2 24 1.6 -11.5403
253 3 44.8 22.4 0 -11.5329
254 3 46.4 24 1.6 -11.4959
255 3 48 22.4 0 -11.4612
256 3 49.6 24 1.6 -11.4879
257 3 0 25.6 0 -11.543
259 3 3.2 25.6 0 -11.5379
261 1 6.4 25.6 0 -11.9436
263 1 9.6 25.6 0 -11.9153
265 3 12.8 25.6 0 -11.5307
267 1 16 25.6 0 -11.958
269 3 19.2 25.6 0 -11.4568
271 3 22.4 25.6 0 -11.5543
273 2 25.6 25.6 0 -9.98218
275 3 28.8 25.6 0 -11.5896
277 3 32 25.6 0 -11.587
279 2 35.2 25.6 0 -9.97797
281 1 38.4 25.6 0 -11.9252
283 1 41.6 25.6 0 -11.9275
285 3 44.8 25.6 0 -11.5715
287 2 48 25.6 0 -10.0235
258 1 1.6 27.2 1.6 -11.9619
289 3 0 28.8 0 -11.4884
260 3 4.8 27.2 1.6 -11.5359
291 3 3.2 28.8 0 -11.5314
262 3 8 27.2 1.6 -11.5707
293 2 6.4 28.8 0 -9.98205
264 3 11.2 27.2 1.6 -11.524
295 1 9.6 28.8 0 -11.9041
266 3 14.4 27.2 1.6 -11.5305
297 2 12.8 28.8 0 -9.98222
268 3 17.6 27.2 1.6 -11.3705
299 1 16 28.8 0 -11.879
270 2 20.8 27.2 1.6 -9.95734
301 1 19.2 28.8 0 -11.9056
272 2 24 27.2 1.6 -10.0071
303 1 22.4 28.8 0 -11.8605
305 2 25.6 28.8 0 -9.94536
274 2 27.2 27.2 1.6 -10.0147
307 1 28.8 28.8 0 -11.8791
276 3 30.4 27.2 1.6 -11.4584
309 1 32 28.8 0 -11.8691
278 3 33.6 27.2 1.6 -11.5299
311 1 35.2 28.8 0 -11.9167
280 3 36.8 27.2 1.6 -11.5141
313 1 38.4 28.8 0 -11.9819
282 3 40 27.2 1.6 -11.5143
315 3 41.6 28.8 0 -11.4351
284 3 43.2 27.2 1.6 -11.5627
317 3 44.8 28.8 0 -11.6018
286 2 46.4 27.2 1.6 -9.99636
319 1 48 28.8 0 -11.8872
288 2 49.6 27.2 1.6 -9.90501
290 3 1.6 30.4 1.6 -11.4361
321 3 0 32 0 -11.4837
292 3 4.8 30.4 1.6 -11.5393
323 1 3.2 32 0 -11.9548
294 3 8 30.4 1.6 -11.5036
325 2 6.4 32 0 -9.97063
296 2 11.2 30.4 1.6 -9.93503
327 1 9.6 32 0 -11.8482
298 3 14.4 30.4 1.6 -11.4762
329 2 12.8 32 0 -9.91011
300 3 17.6 30.4 1.6 -11.4894
331 1 16 32 0 -11.8832
302 3 20.8 30.4 1.6 -11.4582
333 1 19.2 32 0 -11.9487
304 3 24 30.4 1.6 -11.4722
335 1 22.4 32 0 -11.9532
337 2 25.6 32 0 -9.96646
306 3 27.2 30.4 1.6 -11.403
339 3 28.8 32 0 -11.4523
308 2 30.4 30.4 1.6 -9.92639
341 2 32 32 0 -10.0179
310 3 33.6 30.4 1.6 -11.4728
343 3 35.2 32 0 -11.4969
312 3 36.8 30.4 1.6 -11.5439
345 3 38.4 32 0 -11.5069
314 3 40 30.4 1.6 -11.5806
347 2 41.6 32 0 -10.0414
316 2 43.2 30.4 1.6 -10.0202
349 3 44.8 32 0 -11.5423
318 2 46.4 30.4 1.6 -10.0014
351 2 48 32 0 -9.92549
320 1 49.6 30.4 1.6 -11.9097
322 2 1.6 33.6 1.6 -10.0335
353 3 0 35.2 0 -11.5077
324 2 4.8 33.6 1.6 -9.96989
355 3 3.2 35.2 0 -11.5072
326 3 8 33.6 1.6 -11.5386
357 3 6.4 35.2 0 -11.6027
328 2 11.2 33.6 1.6 -9.96681
359 2 9.6 35.2 0 -9.98269
330 2 14.4 33.6 1.6 -10.011
361 2 12.8 35.2 0 -10.0116
332 3 17.6 33.6 1.6 -11.5114
363 1 16 35.2 0 -11.9415
334 3 20.8 33.6 1.6 -11.6463
365 3 19.2 35.2 0 -11.5124
336 3 24 33.6 1.6 -11.5894
367 3 22.4 35.2 0 -11.5653
369 3 25.6 35.2 0 -11.5736
338 2 27.2 33.6 1.6 -9.97215
371 3 28.8 35.2 0 -11.5937
340 2 30.4 33.6 1.6 -9.98285
373 3 32 35.2 0 -11.5702
342 3 33.6 33.6 1.6 -11.4953
375 3 35.2 35.2 0 -11.5003
344 2 36.8 33.6 1.6 -9.98361
377 2 38.4 35.2 0 -9.97862
346 3 40 33.6 1.6 -11.5603
379 3 41.6 35.2 0 -11.5569
348 2 43.2 33.6 1.6 -10.0198
381 3 44.8 35.2 0 -11.462
350 3 46.4 33.6 1.6 -11.5176
383 1 48 35.2 0 -11.9506
352 2 49.6 33.6 1.6 -9.98717
354 3 1.6 36.8 1.6 -11.5574
385 1 0 38.4 0 -11.9798
356 3 4.8 36.8 1.6 -11.5406
387 3 3.2 38.4 0 -11.4963
358 3 8 36.8 1.6 -11.5953
389 3 6.4 38.4 0 -11.5478
360 2 11.2 36.8 1.6 -10.0372
391 1 9.6 38.4 0 -11.9532
362 3 14.4 36.8 1.6 -11.4271
393 3 12.8 38.4 0 -11.484
364 2 17.6 36.8 1.6 -10.0021
395 2 16 38.4 0 -9.88397
366 3 20.8 36.8 1.6 -11.5664
397 2 19.2 38.4 0 -9.94081
368 3 24 36.8 1.6 -11.6225
399 3 22.4 38.4 0 -11.4396
401 2 25.6 38.4 0 -10.0123
370 3 27.2 36.8 1.6 -11.5424
403 3 28.8 38.4 0 -11.4953
372 1 30.4 36.8 1.6 -11.8944
405 2 32 38.4 0 -10.0495
374 2 33.6 36.8 1.6 -10.0122
407 3 35.2 38.4 0 -11.4821
376 2 36.8 36.8 1.6 -9.96828
409 3 38.4 38.4 0 -11.6338
378 3 40 36.8 1.6 -11.5662
411 3 41.6 38.4 0 -11.5816
380 1 43.2 36.8 1.6 -11.8903
413 1 44.8 38.4 0 -11.8968
382 3 46.4 36.8 1.6 -11.476
415 2 48 38.4 0 -9.95303
384 3 49.6 36.8 1.6 -11.5903
386 3 1.6 40 1.6 -11.5355
417 3 0 41.6 0 -11.5245
388 3 4.8 40 1.6 -11.6563
419 3 3.2 41.6 0 -11.6059
390 3 8 40 1.6 -11.5877
421 3 6.4 41.6 0 -11.5541
392 3 11.2 40 1.6 -11.4555
423 2 9.6 41.6 0 -9.98214
394 3 14.4 40 1.6 -11.5604
425 3 12.8 41.6 0 -11.5086
396 2 17.6 40 1.6 -9.96949
427 2 16 41.6 0 -10.0494
398 3 20.8 40 1.6 -11.4928
429 2 19.2 41.6 0 -9.95287
400 3 24 40 1.6 -11.5227
431 2 22.4 41.6 0 -9.92861
433 2 25.6 41.6 0 -10.007
402 2 27.2 40 1.6 -9.99445
435 3 28.8 41.6 0 -11.5279
404 3 30.4 40 1.6 -11.3877
437 3 32 41.6 0 -11.5251
406 2 33.6 40 1.6 -10.0026
439 1 35.2 41.6 0 -11.9025
408 3 36.8 40 1.6 -11.5578
441 3 38.4 41.6 0 -11.5571
410 2 40 40 1.6 -10.0607
443 3 41.6 41.6 0 -11.5332
412 3 43.2 40 1.6 -11.4248
445 1 44.8 41.6 0 -11.9478
414 3 46.4 40 1.6 -11.5974
447 3 48 41.6 0 -11.6093
416 2 49.6 40 1.6 -10.0397
418 1 1.6 43.2 1.6 -12.0151
449 3 0 44.8 0 -11.6062
420 3 4.8 43.2 1.6 -11.5916
451 3 3.2 44.8 0 -11.4944
422 3 8 43.2 1.6 -11.5463
453 1 6.4 44.8 0 -11.9764
424 3 11.2 43.2 1.6 -11.4481
455 2 9.6 44.8 0 -9.96586
426 2 14.4 43.2 1.6 -10.0664
457 3 12.8 44.8 0 -11.5143
428 3 17.6 43.2 1.6 -11.5722
459 3 16 44.8 0 -11.5686
430 3 20.8 43.2 1.6 -11.496
461 1 19.2 44.8 0 -11.8797
432 3 24 43.2 1.6 -11.5855
463 1 22.4 44.8 0 -11.8853
465 3 25.6 44.8 0 -11.5173
434 3 27.2 43.2 1.6 -11.5359
467 2 28.8 44.8 0 -9.94999
436 2 30.4 43.2 1.6 -10.0283
469 3 32 44.8 0 -11.4169
438 3 33.6 43.2 1.6 -11.4867
471 1 35.2 44.8 0 -11.6894
440 2 36.8 43.2 1.6 -10.0117
473 3 38.4 44.8 0 -11.5898
442 3 40 43.2 1.6 -11.5896
475 3 41.6 44.8 0 -11.4747
444 3 43.2 43.2 1.6 -11.5545
477 2 44.8 44.8 0 -9.97884
446 3 46.4 43.2 1.6 -11.5931
479 3 48 44.8 0 -11.5921
448 3 49.6 43.2 1.6 -11.5921
450 1 1.6 46.4 1.6 -11.9341
481 3 0 48 0 -11.5926
452 2 4.8 46.4 1.6 -9.95637
483 3 3.2 48 0 -11.4934
454 2 8 46.4 1.6 -9.96577
485 3 6.4 48 0 -11.4287
456 3 11.2 46.4 1.6 -11.4219
487 3 9.6 48 0 -11.436
458 3 14.4 46.4 1.6 -11.5124
489 2 12.8 48 0 -9.9603
460 3 17.6 46.4 1.6 -11.5216
491 3 16 48 0 -11.5183
462 3 20.8 46.4 1.6 -11.3868
493 1 19.2 48 0 -11.9114
464 2 24 46.4 1.6 -9.97832
495 1 22.4 48 0 -11.8936
497 2 25.6 48 0 -9.96594
466 2 27.2 46.4 1.6 -9.90034
499 2 28.8 48 0 -9.86453
468 1 30.4 46.4 1.6 -11.8203
501 3 32 48 0 -11.3995
470 1 33.6 46.4 1.6 -11.8115
503 2 35.2 48 0 -9.89871
472 1 36.8 46.4 1.6 -11.8718
505 3 38.4 48 0 -11.5805
474 3 40 46.4 1.6 -11.5367
507 1 41.6 48 0 -11.9858
476 3 43.2 46.4 1.6 -11.5219
509 3 44.8 48 0 -11.5248
478 3 46.4 46.4 1.6 -11.5729
511 3 48 48 0 -11.4548
480 3 49.6 46.4 1.6 -11.5107
482 3 1.6 49.6 1.6 -11.4544
484 1 4.8 49.6 1.6 -11.8241
486 1 8 49.6 1.6 -11.89
488 1 11.2 49.6 1.6 -11.9136
490 1 14.4 49.6 1.6 -11.9573
492 3 17.6 49.6 1.6 -11.5104
494 3 20.8 49.6 1.6 -11.4964
496 2 24 49.6 1.6 -9.89404
498 1 27.2 49.6 1.6 -11.7415
500 3 30.4 49.6 1.6 -11.4373
502 2 33.6 49.6 1.6 -9.93394
504 3 36.8 49.6 1.6 -11.5325
506 3 40 49.6 1.6 -11.6335
508 3 43.2 49.6 1.6 -11.5912
510 3 46.4 49.6 1.6 -11.4484
512 3 49.6 49.6 1.6 -11.4534
513 3 0 0 3.2 -11.4627
514 1 1.6 1.6 4.8 -11.9424
515 2 3.2 0 3.2 -9.9559
516 2 4.8 1.6 4.8 -9.99094
517 3 6.4 0 3.2 -11.4284
518 3 8 1.6 4.8 -11.4715
519 3 9.6 0 3.2 -11.4735
520 3 11.2 1.6 4.8 -11.568
521 3 12.8 0 3.2 -11.512
522 3 14.4 1.6 4.8 -11.5338
523 3 16 0 3.2 -11.6063
524 3 17.6 1.6 4.8 -11.592
525 3 19.2 0 3.2 -11.5551
526 3 20.8 1.6 4.8 -11.577
527 2 22.4 0 3.2 -9.97281
528 2 24 1.6 4.8 -9.89988
529 1 25.6 0 3.2 -11.7047
530 3 27.2 1.6 4.8 -11.4246
531 2 28.8 0 3.2 -9.90162
532 3 30.4 1.6 4.8 -11.5628
533 3 32 0 3.2 -11.5822
534 2 33.6 1.6 4.8 -9.94915
535 3 35.2 0 3.2 -11.5199
536 3 36.8 1.6 4.8 -11.4856
537 3 38.4 0 3.2 -11.592
538 3 40 1.6 4.8 -11.5516
539 2 41.6 0 3.2 -10.006
540 3 43.2 1.6 4.8 -11.5127
541 3 44.8 0 3.2 -11.4831
542 2 46.4 1.6 4.8 -9.95137
543 1 48 0 3.2 -11.7744
544 1 49.6 1.6 4.8 -11.8562
545 3 0 3.2 3.2 -11.6101
546 3 1.6 4.8 4.8 -11.5112
547 3 3.2 3.2 3.2 -11.5153
548 3 4.8 4.8 4.8 -11.6003
549 2 6.4 3.2 3.2 -9.9782
550 3 8 4.8 4.8 -11.4699
551 1 9.6 3.2 3.2 -11.9127
552 3 11.2 4.8 4.8 -11.563
553 3 12.8 3.2 3.2 -11.5488
554 3 14.4 4.8 4.8 -11.5095
555 3 16 3.2 3.2 -11.4923
556 2 17.6 4.8 4.8 -10.0094
557 3 19.2 3.2 3.2 -11.5742
558 2 20.8 4.8 4.8 -9.98176
559 3 22.4 3.2 3.2 -11.4865
560 1 24 4.8 4.8 -11.9064
561 3 25.6 3.2 3.2 -11.4136
562 3 27.2 4.8 4.8 -11.485
563 3 28.8 3.2 3.2 -11.5547
564 3 30.4 4.8 4.8 -11.5489
565 3 32 3.2 3.2 -11.5303
566 1 33.6 4.8 4.8 -11.9407
567 2 35.2 3.2 3.2 -10.0027
568 2 36.8 4.8 4.8 -10.0147
569 1 38.4 3.2 3.2 -11.9366
570 3 40 4.8 4.8 -11.5223
571 1 41.6 3.2 3.2 -11.9322
572 2 43.2 4.8 4.8 -10.023
573 2 44.8 3.2 3.2 -9.99614
574 1 46.4 4.8 4.8 -11.8264
575 2 48 3.2 3.2 -9.9214
576 3 49.6 4.8 4.8 -11.4136
577 3 0 6.4 3.2 -11.5113
578 1 1.6 8 4.8 -11.9756
579 3 3.2 6.4 3.2 -11.5249
580 3 4.8 8 4.8 -11.5676
581 2 6.4 6.4 3.2 -9.98422
582 3 8 8 4.8 -11.5391
583 1 9.6 6.4 3.2 -11.924
584 3 11.2 8 4.8 -11.5556
585 3 12.8 6.4 3.2 -11.6153
586 3 14.4 8 4.8 -11.6139
587 3 16 6.4 3.2 -11.4492
588 3 17.6 8 4.8 -11.5343
589 3 19.2 6.4 3.2 -11.6229
590 3 20.8 8 4.8 -11.5895
591 3 22.4 6.4 3.2 -11.5667
592 1 24 8 4.8 -11.9278
593 3 25.6 6.4 3.2 -11.4895
594 1 27.2 8 4.8 -11.9123
595 3 28.8 6.4 3.2 -11.5015
596 3 30.4 8 4.8 -11.5093
597 3 32 6.4 3.2 -11.5403
598 1 33.6 8 4.8 -11.9293
599 3 35.2 6.4 3.2 -11.4915
600 3 36.8 8 4.8 -11.5081
601 1 38.4 6.4 3.2 -11.8498
602 3 40 8 4.8 -11.5086
603 3 41.6 6.4 3.2 -11.4572
604 3 43.2 8 4.8 -11.5006
605 2 44.8 6.4 3.2 -9.91662
606 2 46.4 8 4.8 -9.9623
607 1 48 6.4 3.2 -11.8242
608 2 49.6 8 4.8 -9.96552
609 3 0 9.6 3.2 -11.4668
610 3 1.6 11.2 4.8 -11.5486
611 3 3.2 9.6 3.2 -11.537
612 3 4.8 11.2 4.8 -11.6775
613 3 6.4 9.6 3.2 -11.5971
614 3 8 11.2 4.8 -11.4999
615 3 9.6 9.6 3.2 -11.5266
616 1 11.2 11.2 4.8 -11.9378
617 3 12.8 9.6 3.2 -11.5905
618 2 14.4 11.2 4.8 -9.9564
619 1 16 9.6 3.2 -11.978
620 3 17.6 11.2 4.8 -11.5393
621 2 19.2 9.6 3.2 -10.0186
622 3 20.8 11.2 4.8 -11.4779
623 2 22.4 9.6 3.2 -9.93086
624 1 24 11.2 4.8 -11.868
625 3 25.6 9.6 3.2 -11.4448
626 2 27.2 11.2 4.8 -9.98759
627 1 28.8 9.6 3.2 -11.9045
628 3 30.4 11.2 4.8 -11.4971
629 2 32 9.6 3.2 -9.97511
630 1 33.6 11.2 4.8 -11.9674
631 3 35.2 9.6 3.2 -11.5553
632 3 36.8 11.2 4.8 -11.5659
633 3 38.4 9.6 3.2 -11.4789
634 3 40 11.2 4.8 -11.4789
635 2 41.6 9.6 3.2 -10.0305
636 1 43.2 11.2 4.8 -11.911
637 2 44.8 9.6 3.2 -9.9896
638 2 46.4 11.2 4.8 -9.9866
639 3 48 9.6 3.2 -11.4045
640 3 49.6 11.2 4.8 -11.5354
641 3 0 12.8 3.2 -11.4899
642 3 1.6 14.4 4.8 -11.5809
643 3 3.2 12.8 3.2 -11.5799
644 3 4.8 14.4 4.8 -11.5879
645 3 6.4 12.8 3.2 -11.6111
646 3 8 14.4 4.8 -11.5169
647 2 9.6 12.8 3.2 -10.0255
648 1 11.2 14.4 4.8 -11.9215
649 3 12.8 12.8 3.2 -11.5176
650 1 14.4 14.4 4.8 -11.8367
651 2 16 12.8 3.2 -9.97671
652 3 17.6 14.4 4.8 -11.5424
653 3 19.2 12.8 3.2 -11.5874
654 3 20.8 14.4 4.8 -11.5895
655 1 22.4 12.8 3.2 -11.8554
656 3 24 14.4 4.8 -11.5074
657 3 25.6 12.8 3.2 -11.5187
658 3 27.2 14.4 4.8 -11.5442
659 3 28.8 12.8 3.2 -11.5403
660 1 30.4 14.4 4.8 -11.9534
661 3 32 12.8 3.2 -11.5827
662 3 33.6 14.4 4.8 -11.5108
663 3 35.2 12.8 3.2 -11.5922
664 3 36.8 14.4 4.8 -11.5061
665 1 38.4 12.8 3.2 -11.9031
666 2 40 14.4 4.8 -9.88664
667 2 41.6 12.8 3.2 -9.88133
668 1 43.2 14.4 4.8 -11.8546
669 3 44.8 12.8 3.2 -11.3418
670 2 46.4 14.4 4.8 -9.99157
671 1 48 12.8 3.2 -11.858
672 3 49.6 14.4 4.8 -11.5361
673 3 0 16 3.2 -11.5286
674 2 1.6 17.6 4.8 -9.96429
675 1 3.2 16 3.2 -11.9531
676 3 4.8 17.6 4.8 -11.3359
677 2 6.4 16 3.2 -9.94208
678 2 8 17.6 4.8 -10.0233
679 3 9.6 16 3.2 -11.6155
680 3 11.2 17.6 4.8 -11.5687
681 3 12.8 16 3.2 -11.5801
682 3 14.4 17.6 4.8 -11.575
683 3 16 16 3.2 -11.5789
684 3 17.6 17.6 4.8 -11.6453
685 3 19.2 16 3.2 -11.5446
686 3 20.8 17.6 4.8 -11.5888
687 1 22.4 16 3.2 -11.8894
688 3 24 17.6 4.8 -11.5098
689 3 25.6 16 3.2 -11.6057
690 1 27.2 17.6 4.8 -11.9697
691 3 28.8 16 3.2 -11.5523
692 1 30.4 17.6 4.8 -11.9172
693 3 32 16 3.2 -11.4627
694 2 33.6 17.6 4.8 -10.0065
695 2 35.2 16 3.2 -9.9885
696 3 36.8 17.6 4.8 -11.5199
697 3 38.4 16 3.2 -11.4491
698 2 40 17.6 4.8 -10.0192
699 2 41.6 16 3.2 -9.91024
700 2 43.2 17.6 4.8 -9.94693
701 3 44.8 16 3.2 -11.5104
702 2 46.4 17.6 4.8 -10.0032
703 3 48 16 3.2 -11.5489
704 1 49.6 17.6 4.8 -11.8932
705 2 0 19.2 3.2 -9.9686
706 2 1.6 20.8 4.8 -9.89967
707 3 3.2 19.2 3.2 -11.3341
708 3 4.8 20.8 4.8 -11.4036
709 1 6.4 19.2 3.2 -11.9488
710 3 8 20.8 4.8 -11.4774
711 3 9.6 19.2 3.2 -11.5337
712 2 11.2 20.8 4.8 -10.0338
713 1 12.8 19.2 3.2 -11.9571
714 3 14.4 20.8 4.8 -11.4725
715 3 16 19.2 3.2 -11.4995
716 3 17.6 20.8 4.8 -11.6225
717 3 19.2 19.2 3.2 -11.568
718 3 20.8 20.8 4.8 -11.606
719 1 22.4 19.2 3.2 -11.9221
720 3 24 20.8 4.8 -11.3335
721 3 25.6 19.2 3.2 -11.4659
722 1 27.2 20.8 4.8 -11.8508
723 3 28.8 19.2 3.2 -11.5572
724 3 30.4 20.8 4.8 -11.5208
725 2 32 19.2 3.2 -10.0238
726 3 33.6 20.8 4.8 -11.5685
727 2 35.2 19.2 3.2 -10.0078
728 3 36.8 20.8 4.8 -11.5685
729 3 38.4 19.2 3.2 -11.5532
730 3 40 20.8 4.8 -11.4756
731 1 41.6 19.2 3.2 -11.8359
732 2 43.2 20.8 4.8 -9.91486
733 2 44.8 19.2 3.2 -9.94539
734 3 46.4 20.8 4.8 -11.4327
735 3 48 19.2 3.2 -11.4166
736 1 49.6 20.8 4.8 -11.8093
737 2 0 22.4 3.2 -9.81733
738 2 1.6 24 4.8 -9.92783
739 1 3.2 22.4 3.2 -11.8136
740 3 4.8 24 4.8 -11.5122
741 1 6.4 22.4 3.2 -11.9
742 3 8 24 4.8 -11.5972
743 2 9.6 22.4 3.2 -10.0049
744 2 11.2 24 4.8 -10.0012
745 1 12.8 22.4 3.2 -11.8805
746 2 14.4 24 4.8 -9.93418
747 1 16 22.4 3.2 -11.8588
748 2 17.6 24 4.8 -9.88766
749 3 19.2 22.4 3.2 -11.4733
750 3 20.8 24 4.8 -11.3796
751 1 22.4 22.4 3.2 -11.8907
752 2 24 24 4.8 -9.87691
753 1 25.6 22.4 3.2 -11.8386
754 3 27.2 24 4.8 -11.4766
755 2 28.8 22.4 3.2 -9.99739
756 3 30.4 24 4.8 -11.6368
757 1 32 22.4 3.2 -12.0092
758 3 33.6 24 4.8 -11.6288
759 3 35.2 22.4 3.2 -11.5676
760 2 36.8 24 4.8 -10.0243
761 3 38.4 22.4 3.2 -11.5759
762 2 40 24 4.8 -10.0098
763 2 41.6 22.4 3.2 -9.96053
764 2 43.2 24 4.8 -10.036
765 3 44.8 22.4 3.2 -11.4945
766 3 46.4 24 4.8 -11.5423
767 1 48 22.4 3.2 -11.8451
768 2 49.6 24 4.8 -9.94389
769 3 0 25.6 3.2 -11.4826
771 3 3.2 25.6 3.2 -11.4966
773 3 6.4 25.6 3.2 -11.5491
775 3 9.6 25.6 3.2 -11.5321
777 3 12.8 25.6 3.2 -11.5226
779 1 16 25.6 3.2 -11.8174
781 1 19.2 25.6 3.2 -11.8845
783 2 22.4 25.6 3.2 -9.87921
785 3 25.6 25.6 3.2 -11.4704
787 3 28.8 25.6 3.2 -11.6099
789 3 32 25.6 3.2 -11.5108
791 3 35.2 25.6 3.2 -11.5869
793 2 38.4 25.6 3.2 -9.98176
795 1 41.6 25.6 3.2 -11.9329
797 3 44.8 25.6 3.2 -11.544
799 2 48 25.6 3.2 -9.98434
770 2 1.6 27.2 4.8 -9.8529
801 3 0 28.8 3.2 -11.5161
772 1 4.8 27.2 4.8 -11.9705
803 3 3.2 28.8 3.2 -11.5121
774 3 8 27.2 4.8 -11.5334
805 3 6.4 28.8 3.2 -11.5772
776 1 11.2 27.2 4.8 -11.9798
807 2 9.6 28.8 3.2 -9.98221
778 3 14.4 27.2 4.8 -11.4671
809 3 12.8 28.8 3.2 -11.5196
780 3 17.6 27.2 4.8 -11.4209
811 1 16 28.8 3.2 -11.9814
782 3 20.8 27.2 4.8 -11.4421
813 3 19.2 28.8 3.2 -11.4269
784 3 24 27.2 4.8 -11.4584
815 1 22.4 28.8 3.2 -11.9141
817 2 25.6 28.8 3.2 -9.92968
786 3 27.2 27.2 4.8 -11.607
819 1 28.8 28.8 3.2 -11.8791
788 3 30.4 27.2 4.8 -11.5883
821 1 32 28.8 3.2 -11.9137
790 3 33.6 27.2 4.8 -11.5389
823 1 35.2 28.8 3.2 -11.9278
792 3 36.8 27.2 4.8 -11.5219
825 3 38.4 28.8 3.2 -11.4221
794 3 40 27.2 4.8 -11.5086
827 2 41.6 28.8 3.2 -9.94814
796 3 43.2 27.2 4.8 -11.4571
829 3 44.8 28.8 3.2 -11.5875
798 1 46.4 27.2 4.8 -11.9256
831 3 48 28.8 3.2 -11.4218
800 1 49.6 27.2 4.8 -11.9525
802 1 1.6 30.4 4.8 -11.9411
833 3 0 32 3.2 -11.5727
804 1 4.8 30.4 4.8 -11.8628
835 2 3.2 32 3.2 -9.89508
806 3 8 30.4 4.8 -11.5679
837 2 6.4 32 3.2 -9.96349
808 2 11.2 30.4 4.8 -9.99872
839 1 9.6 32 3.2 -11.9109
810 3 14.4 30.4 4.8 -11.6255
841 2 12.8 32 3.2 -10.0218
812 3 17.6 30.4 4.8 -11.5964
843 3 16 32 3.2 -11.4956
814 3 20.8 30.4 4.8 -11.6057
845 3 19.2 32 3.2 -11.5678
816 3 24 30.4 4.8 -11.5638
847 3 22.4 32 3.2 -11.511
849 1 25.6 32 3.2 -11.9463
818 3 27.2 30.4 4.8 -11.5617
851 1 28.8 32 3.2 -11.8613
820 3 30.4 30.4 4.8 -11.5208
853 3 32 32 3.2 -11.4524
822 3 33.6 30.4 4.8 -11.4509
855 3 35.2 32 3.2 -11.4967
824 2 36.8 30.4 4.8 -9.9817
857 2 38.4 32 3.2 -10.0076
826 3 40 30.4 4.8 -11.4727
859 1 41.6 32 3.2 -11.9126
828 2 43.2 30.4 4.8 -10.0326
861 2 44.8 32 3.2 -10.0326
830 3 46.4 30.4 4.8 -11.4836
863 3 48 32 3.2 -11.5126
832 2 49.6 30.4 4.8 -9.92838
834 3 1.6 33.6 4.8 -11.4402
865 3 0 35.2 3.2 -11.5449
836 1 4.8 33.6 4.8 -11.814
867 1 3.2 35.2 3.2 -11.8793
838 3 8 33.6 4.8 -11.5063
869 2 6.4 35.2 3.2 -9.98962
840 3 11.2 33.6 4.8 -11.5175
871 3 9.6 35.2 3.2 -11.5082
842 2 14.4 33.6 4.8 -9.96095
873 3 12.8 35.2 3.2 -11.511
844 2 17.6 33.6 4.8 -10.0736
875 2 16 35.2 3.2 -9.97246
846 3 20.8 33.6 4.8 -11.6246
877 3 19.2 35.2 3.2 -11.6006
848 3 24 33.6 4.8 -11.6134
879 3 22.4 35.2 3.2 -11.6567
881 3 25.6 35.2 3.2 -11.5324
850 2 27.2 33.6 4.8 -9.99195
883 2 28.8 35.2 3.2 -9.9614
852 2 30.4 33.6 4.8 -9.94197
885 3 32 35.2 3.2 -11.529
854 1 33.6 33.6 4.8 -11.8924
887 3 35.2 35.2 3.2 -11.5298
856 1 36.8 33.6 4.8 -11.8809
889 2 38.4 35.2 3.2 -10.0102
858 2 40 33.6 4.8 -10.0284
891 3 41.6 35.2 3.2 -11.4997
860 3 43.2 33.6 4.8 -11.4413
893 3 44.8 35.2 3.2 -11.4802
862 1 46.4 33.6 4.8 -11.9687
895 3 48 35.2 3.2 -11.5506
864 2 49.6 33.6 4.8 -10.0093
866 3 1.6 36.8 4.8 -11.6065
897 3 0 38.4 3.2 -11.5351
868 3 4.8 36.8 4.8 -11.5207
899 1 3.2 38.4 3.2 -11.996
870 3 8 36.8 4.8 -11.5919
901 3 6.4 38.4 3.2 -11.5439
872 3 11.2 36.8 4.8 -11.4949
903 1 9.6 38.4 3.2 -11.9447
874 1 14.4 36.8 4.8 -11.8963
905 2 12.8 38.4 3.2 -9.94293
876 3 17.6 36.8 4.8 -11.5095
907 1 16 38.4 3.2 -11.8642
878 3 20.8 36.8 4.8 -11.5496
909 1 19.2 38.4 3.2 -11.9453
880 3 24 36.8 4.8 -11.597
911 2 22.4 38.4 3.2 -9.94081
913 3 25.6 38.4 3.2 -11.5535
882 3 27.2 36.8 4.8 -11.5543
915 1 28.8 38.4 3.2 -11.8452
884 3 30.4 36.8 4.8 -11.476
917 2 32 38.4 3.2 -9.97173
886 3 33.6 36.8 4.8 -11.4558
919 3 35.2 38.4 3.2 -11.587
888 1 36.8 36.8 4.8 -11.9247
921 3 38.4 38.4 3.2 -11.529
890 3 40 36.8 4.8 -11.5092
923 2 41.6 38.4 3.2 -9.98927
892 1 43.2 36.8 4.8 -11.8794
925 2 44.8 38.4 3.2 -9.9258
894 1 46.4 36.8 4.8 -11.948
927 3 48 38.4 3.2 -11.5906
896 3 49.6 36.8 4.8 -11.5243
898 3 1.6 40 4.8 -11.5097
929 3 0 41.6 3.2 -11.6081
900 2 4.8 40 4.8 -10.0876
931 3 3.2 41.6 3.2 -11.6019
902 3 8 40 4.8 -11.5415
933 3 6.4 41.6 3.2 -11.6093
904 3 11.2 40 4.8 -11.5625
935 1 9.6 41.6 3.2 -11.9105
906 3 14.4 40 4.8 -11.4941
937 1 12.8 41.6 3.2 -11.9231
908 3 17.6 40 4.8 -11.6228
939 3 16 41.6 3.2 -11.5333
910 3 20.8 40 4.8 -11.5394
941 3 19.2 41.6 3.2 -11.4745
912 3 24 40 4.8 -11.5282
943 1 22.4 41.6 3.2 -11.9886
945 2 25.6 41.6 3.2 -9.9666
914 2 27.2 40 4.8 -9.97694
947 1 28.8 41.6 3.2 -11.8742
916 2 30.4 40 4.8 -9.95516
949 2 32 41.6 3.2 -10.026
918 2 33.6 40 4.8 -10.0303
951 3 35.2 41.6 3.2 -11.4475
920 3 36.8 40 4.8 -11.4332
953 1 38.4 41.6 3.2 -11.9417
922 2 40 40 4.8 -9.9919
955 2 41.6 41.6 3.2 -9.96105
924 1 43.2 40 4.8 -11.9171
957 3 44.8 41.6 3.2 -11.5189
926 3 46.4 40 4.8 -11.3992
959 3 48 41.6 3.2 -11.5922
928 1 49.6 40 4.8 -11.9843
930 3 1.6 43.2 4.8 -11.5678
961 3 0 44.8 3.2 -11.5105
932 3 4.8 43.2 4.8 -11.6342
963 3 3.2 44.8 3.2 -11.5381
934 3 8 43.2 4.8 -11.5382
965 3 6.4 44.8 3.2 -11.4461
936 2 11.2 43.2 4.8 -9.93039
967 1 9.6 44.8 3.2 -11.883
938 3 14.4 43.2 4.8 -11.4673
969 1 12.8 44.8 3.2 -11.8593
940 3 17.6 43.2 4.8 -11.6369
971 3 16 44.8 3.2 -11.4998
942 3 20.8 43.2 4.8 -11.5651
973 1 19.2 44.8 3.2 -11.9725
944 3 24 43.2 4.8 -11.5258
975 3 22.4 44.8 3.2 -11.4636
977 3 25.6 44.8 3.2 -11.5786
946 2 27.2 43.2 4.8 -10.0428
979 2 28.8 44.8 3.2 -9.96345
948 3 30.4 43.2 4.8 -11.5448
981 3 32 44.8 3.2 -11.5164
950 3 33.6 43.2 4.8 -11.5682
983 3 35.2 44.8 3.2 -11.4899
952 3 36.8 43.2 4.8 -11.477
985 3 38.4 44.8 3.2 -11.5109
954 3 40 43.2 4.8 -11.4745
987 1 41.6 44.8 3.2 -11.9658
956 2 43.2 43.2 4.8 -9.98981
989 2 44.8 44.8 3.2 -9.86553
958 2 46.4 43.2 4.8 -10.0483
991 1 48 44.8 3.2 -11.9859
960 3 49.6 43.2 4.8 -11.5183
962 3 1.6 46.4 4.8 -11.4959
993 3 0 48 3.2 -11.4892
964 3 4.8 46.4 4.8 -11.4721
995 1 3.2 48 3.2 -11.8462
966 2 8 46.4 4.8 -9.96355
997 2 6.4 48 3.2 -9.89991
968 2 11.2 46.4 4.8 -9.9862
999 3 9.6 48 3.2 -11.4294
970 3 14.4 46.4 4.8 -11.5099
1001 3 12.8 48 3.2 -11.4733
972 3 17.6 46.4 4.8 -11.5888
1003 3 16 48 3.2 -11.5805
974 3 20.8 46.4 4.8 -11.4947
1005 1 19.2 48 3.2 -11.9803
976 1 24 46.4 4.8 -11.9491
1007 3 22.4 48 3.2 -11.4539
1009 2 25.6 48 3.2 -9.87818
978 3 27.2 46.4 4.8 -11.4759
1011 1 28.8 48 3.2 -11.8075
980 3 30.4 46.4 4.8 -11.5615
1013 3 32 48 3.2 -11.5151
982 3 33.6 46.4 4.8 -11.5111
1015 3 35.2 48 3.2 -11.5097
984 3 36.8 46.4 4.8 -11.5357
1017 3 38.4 48 3.2 -11.5854
986 3 40 46.4 4.8 -11.5734
1019 1 41.6 48 3.2 -11.8999
988 3 43.2 46.4 4.8 -11.341
1021 1 44.8 48 3.2 -11.9394
990 3 46.4 46.4 4.8 -11.4416
1023 1 48 48 3.2 -11.8734
992 3 49.6 46.4 4.8 -11.5332
994 2 1.6 49.6 4.8 -9.92067
996 3 4.8 49.6 4.8 -11.3753
998 1 8 49.6 4.8 -11.8685
1000 2 11.2 49.6 4.8 -9.91904
1002 1 14.4 49.6 4.8 -11.9332
1004 3 17.6 49.6 4.8 -11.6148
1006 3 20.8 49.6 4.8 -11.568
1008 2 24 49.6 4.8 -9.90031
1010 2 27.2 49.6 4.8 -9.86797
1012 3 30.4 49.6 4.8 -11.5452
1014 1 33.6 49.6 4.8 -11.9608
1016 1 36.8 49.6 4.8 -12.017
1018 3 40 49.6 4.8 -11.4912
1020 3 43.2 49.6 4.8 -11.4833
1022 3 46.4 49.6 4.8 -11.4243
1024 1 49.6 49.6 4.8 -11.845
1025 3 0 0 6.4 -11.4697
1026 3 1.6 1.6 8 -11.3849
1027 2 3.2 0 6.4 -10.0275
1028 3 4.8 1.6 8 -11.5443
1029 3 6.4 0 6.4 -11.5017
1030 1 8 1.6 8 -11.9777
1031 2 9.6 0 6.4 -10.0196
1032 3 11.2 1.6 8 -11.4581
1033 1 12.8 0 6.4 -11.8863
1034 3 14.4 1.6 8 -11.4892
1035 3 16 0 6.4 -11.5473
1036 3 17.6 1.6 8 -11.6777
1037 3 19.2 0 6.4 -11.6565
1038 3 20.8 1.6 8 -11.5095
1039 2 22.4 0 6.4 -9.94531
1040 2 24 1.6 8 -9.98145
1041 1 25.6 0 6.4 -11.8044
1042 3 27.2 1.6 8 -11.4614
1043 1 28.8 0 6.4 -11.8998
1044 2 30.4 1.6 8 -10.0576
1045 3 32 0 6.4 -11.5515
1046 3 33.6 1.6 8 -11.4483
1047 3 35.2 0 6.4 -11.5471
1048 1 36.8 1.6 8 -12.0175
1049 3 38.4 0 6.4 -11.563
1050 1 40 1.6 8 -11.8895
1051 3 41.6 0 6.4 -11.4307
1052 1 43.2 1.6 8 -11.9305
1053 2 44.8 0 6.4 -10.0372
1054 3 46.4 1.6 8 -11.5342
1055 3 48 0 6.4 -11.445
1056 2 49.6 1.6 8 -9.99304
1057 3 0 3.2 6.4 -11.5365
1058 1 1.6 4.8 8 -11.9435
1059 3 3.2 3.2 6.4 -11.6133
1060 3 4.8 4.8 8 -11.5771
1061 3 6.4 3.2 6.4 -11.6109
1062 1 8 4.8 8 -11.9044
1063 3 9.6 3.2 6.4 -11.4046
1064 3 11.2 4.8 8 -11.4605
1065 1 12.8 3.2 6.4 -11.9444
1066 3 14.4 4.8 8 -11.4962
1067 1 16 3.2 6.4 -11.9566
1068 3 17.6 4.8 8 -11.5133
1069 3 19.2 3.2 6.4 -11.5918
1070 1 20.8 4.8 8 -11.9493
1071 3 22.4 3.2 6.4 -11.4996
1072 1 24 4.8 8 -11.9091
1073 2 25.6 3.2 6.4 -9.94888
1074 2 27.2 4.8 8 -9.99512
1075 1 28.8 3.2 6.4 -11.95
1076 3 30.4 4.8 8 -11.4547
1077 3 32 3.2 6.4 -11.5259
1078 1 33.6 4.8 8 -11.9662
1079 3 35.2 3.2 6.4 -11.552
1080 3 36.8 4.8 8 -11.5436
1081 3 38.4 3.2 6.4 -11.5409
1082 3 40 4.8 8 -11.5332
1083 2 41.6 3.2 6.4 -10.0082
1084 3 43.2 4.8 8 -11.5159
1085 3 44.8 3.2 6.4 -11.5041
1086 2 46.4 4.8 8 -9.97133
1087 3 48 3.2 6.4 -11.51
1088 1 49.6 4.8 8 -11.9789
1089 3 0 6.4 6.4 -11.5088
1090 1 1.6 8 8 -11.9637
1091 3 3.2 6.4 6.4 -11.6058
1092 3 4.8 8 8 -11.5
1093 3 6.4 6.4 6.4 -11.5506
1094 1 8 8 8 -11.8908
1095 1 9.6 6.4 6.4 -11.8519
1096 2 11.2 8 8 -9.97989
1097 3 12.8 6.4 6.4 -11.4263
1098 3 14.4 8 8 -11.5901
1099 1 16 6.4 6.4 -11.9654
1100 2 17.6 8 8 -10.0619
1101 3 19.2 6.4 6.4 -11.5309
1102 3 20.8 8 8 -11.4466
1103 3 22.4 6.4 6.4 -11.5323