ITEM: TIMESTEP
0
ITEM: NUMBER OF ATOMS
8192
ITEM: BOX BOUNDS pp pp pp
0.0000000000000000e+00 5.1200000000000003e+01
0.0000000000000000e+00 5.1200000000000003e+01
0.0000000000000000e+00 5.1200000000000003e+01
ITEM: ATOMS id type x y z c_eng
1 1 0 0 0 -11.6103
2 3 1.6 1.6 1.6 -11.1249
3 1 3.2 0 0 -11.6582
4 2 4.8 1.6 1.6 -9.58208
5 1 6.4 0 0 -11.6279
6 2 8 1.6 1.6 -9.64875
7 1 9.6 0 0 -11.6893
8 2 11.2 1.6 1.6 -9.58247
9 1 12.8 0 0 -11.723
10 2 14.4 1.6 1.6 -9.65971
11 1 16 0 0 -11.6911
12 2 17.6 1.6 1.6 -9.69898
13 1 19.2 0 0 -11.7183
14 2 20.8 1.6 1.6 -9.69995
15 1 22.4 0 0 -11.6885
16 2 24 1.6 1.6 -9.7329
17 1 25.6 0 0 -11.6616
18 2 27.2 1.6 1.6 -9.63266
19 1 28.8 0 0 -11.6651
20 2 30.4 1.6 1.6 -9.75164
21 1 32 0 0 -11.6844
22 2 33.6 1.6 1.6 -9.68509
23 1 35.2 0 0 -11.5428
24 2 36.8 1.6 1.6 -9.6483
25 1 38.4 0 0 -11.503
26 1 40 1.6 1.6 -11.5584
27 2 41.6 0 0 -9.60274
28 1 43.2 1.6 1.6 -11.5767
29 2 44.8 0 0 -9.64467
30 1 46.4 1.6 1.6 -11.4518
31 1 48 0 0 -11.4828
32 3 49.6 1.6 1.6 -10.9931
33 1 0 3.2 0 -11.6915
34 2 1.6 4.8 1.6 -9.61516
35 1 3.2 3.2 0 -11.6606
36 2 4.8 4.8 1.6 -9.64852
37 1 6.4 3.2 0 -11.662
38 3 8 4.8 1.6 -10.995
39 1 9.6 3.2 0 -11.6279
40 2 11.2 4.8 1.6 -9.51413
41 1 12.8 3.2 0 -11.6275
42 2 14.4 4.8 1.6 -9.65658
43 1 16 3.2 0 -11.7276
44 3 17.6 4.8 1.6 -11.2677
45 1 19.2 3.2 0 -11.7197
46 3 20.8 4.8 1.6 -11.1868
47 1 22.4 3.2 0 -11.7017
48 2 24 4.8 1.6 -9.73009
49 1 25.6 3.2 0 -11.6324
50 2 27.2 4.8 1.6 -9.62656
51 1 28.8 3.2 0 -11.6573
52 2 30.4 4.8 1.6 -9.59788
53 1 32 3.2 0 -11.6306
54 1 33.6 4.8 1.6 -11.368
55 1 35.2 3.2 0 -11.5833
56 2 36.8 4.8 1.6 -9.58894
57 2 38.4 3.2 0 -9.70817
58 2 40 4.8 1.6 -9.69456
59 2 41.6 3.2 0 -9.77191
60 2 43.2 4.8 1.6 -9.67195
61 2 44.8 3.2 0 -9.64748
62 2 46.4 4.8 1.6 -9.62682
63 1 48 3.2 0 -11.602
64 2 49.6 4.8 1.6 -9.58194
65 1 0 6.4 0 -11.5508
66 2 1.6 8 1.6 -9.4824
67 1 3.2 6.4 0 -11.6578
68 2 4.8 8 1.6 -9.72363
69 1 6.4 6.4 0 -11.6915
70 2 8 8 1.6 -9.66279
71 1 9.6 6.4 0 -11.5508
72 1 11.2 8 1.6 -11.3701
73 1 12.8 6.4 0 -11.5205
74 2 14.4 8 1.6 -9.50868
75 1 16 6.4 0 -11.7183
76 3 17.6 8 1.6 -11.1265
77 1 19.2 6.4 0 -11.7841
78 2 20.8 8 1.6 -9.65951
79 1 22.4 6.4 0 -11.6964
80 2 24 8 1.6 -9.59834
81 1 25.6 6.4 0 -11.5938
82 2 27.2 8 1.6 -9.54897
83 1 28.8 6.4 0 -11.6582
84 2 30.4 8 1.6 -9.58284
85 1 32 6.4 0 -11.5823
86 2 33.6 8 1.6 -9.51399
87 1 35.2 6.4 0 -11.5508
88 2 36.8 8 1.6 -9.54884
89 1 38.4 6.4 0 -11.6996
90 2 40 8 1.6 -9.63171
91 2 41.6 6.4 0 -9.70377
92 1 43.2 8 1.6 -11.4839
93 2 44.8 6.4 0 -9.69601
94 2 46.4 8 1.6 -9.61517
95 1 48 6.4 0 -11.634
96 1 49.6 8 1.6 -11.3715
97 1 0 9.6 0 -11.4391
98 1 1.6 11.2 1.6 -11.4092
99 1 3.2 9.6 0 -11.6024
100 2 4.8 11.2 1.6 -9.6628
101 1 6.4 9.6 0 -11.7013
102 2 8 11.2 1.6 -9.69898
103 1 9.6 9.6 0 -11.6024
104 2 11.2 11.2 1.6 -9.59319
105 1 12.8 9.6 0 -11.5199
106 2 14.4 11.2 1.6 -9.6154
107 1 16 9.6 0 -11.7187
108 3 17.6 11.2 1.6 -11.0832
109 1 19.2 9.6 0 -11.7811
110 2 20.8 11.2 1.6 -9.61429
111 1 22.4 9.6 0 -11.7205
112 3 24 11.2 1.6 -11.0854
113 1 25.6 9.6 0 -11.6582
114 2 27.2 11.2 1.6 -9.51373
115 1 28.8 9.6 0 -11.6582
116 2 30.4 11.2 1.6 -9.61808
117 1 32 9.6 0 -11.6582
118 2 33.6 11.2 1.6 -9.54796
119 1 35.2 9.6 0 -11.6279
120 2 36.8 11.2 1.6 -9.58343
121 1 38.4 9.6 0 -11.6922
122 2 40 11.2 1.6 -9.58834
123 2 41.6 9.6 0 -9.65123
124 1 43.2 11.2 1.6 -11.4587
125 1 44.8 9.6 0 -11.4649
126 2 46.4 11.2 1.6 -9.64545
127 2 48 9.6 0 -9.50373
128 2 49.6 11.2 1.6 -9.4929
129 1 0 12.8 0 -11.4825
130 2 1.6 14.4 1.6 -9.53354
131 1 3.2 12.8 0 -11.5496
132 3 4.8 14.4 1.6 -11.0848
133 1 6.4 12.8 0 -11.6915
134 3 8 14.4 1.6 -11.1268
135 1 9.6 12.8 0 -11.7242
136 3 11.2 14.4 1.6 -11.1265
137 1 12.8 12.8 0 -11.7187
138 3 14.4 14.4 1.6 -11.0835
139 1 16 12.8 0 -11.7529
140 2 17.6 14.4 1.6 -9.67791
141 1 19.2 12.8 0 -11.7846
142 3 20.8 14.4 1.6 -10.9931
143 1 22.4 12.8 0 -11.8124
144 3 24 14.4 1.6 -11.0386
145 1 25.6 12.8 0 -11.7511
146 2 27.2 14.4 1.6 -9.5455
147 1 28.8 12.8 0 -11.6897
148 2 30.4 14.4 1.6 -9.58284
149 1 32 12.8 0 -11.6897
150 2 33.6 14.4 1.6 -9.61796
151 1 35.2 12.8 0 -11.662
152 2 36.8 14.4 1.6 -9.56026
153 1 38.4 12.8 0 -11.6247
154 1 40 14.4 1.6 -11.4674
155 2 41.6 12.8 0 -9.67233
156 1 43.2 14.4 1.6 -11.3713
157 2 44.8 12.8 0 -9.54643
158 1 46.4 14.4 1.6 -11.4572
159 1 48 12.8 0 -11.4708
160 1 49.6 14.4 1.6 -11.3983
161 2 0 16 0 -9.62743
162 2 1.6 17.6 1.6 -9.63322
163 1 3.2 16 0 -11.6671
164 2 4.8 17.6 1.6 -9.64852
165 1 6.4 16 0 -11.6897
166 3 8 17.6 1.6 -11.0403
167 1 9.6 16 0 -11.7205
168 2 11.2 17.6 1.6 -9.69198
169 1 12.8 16 0 -11.7505
170 2 14.4 17.6 1.6 -9.69901
171 1 16 16 0 -11.7492
172 2 17.6 17.6 1.6 -9.62603
173 1 19.2 16 0 -11.6893
174 2 20.8 17.6 1.6 -9.58332
175 1 22.4 16 0 -11.7187
176 2 24 17.6 1.6 -9.66064
177 1 25.6 16 0 -11.7205
178 2 27.2 17.6 1.6 -9.52547
179 1 28.8 16 0 -11.7187
180 2 30.4 17.6 1.6 -9.50958
181 1 32 16 0 -11.6897
182 2 33.6 17.6 1.6 -9.54847
183 1 35.2 16 0 -11.6275
184 2 36.8 17.6 1.6 -9.65688
185 1 38.4 16 0 -11.6123
186 2 40 17.6 1.6 -9.64781
187 2 41.6 16 0 -9.63522
188 1 43.2 17.6 1.6 -11.328
189 1 44.8 16 0 -11.4965
190 2 46.4 17.6 1.6 -9.48206
191 1 48 16 0 -11.4907
192 1 49.6 17.6 1.6 -11.4132
193 2 0 19.2 0 -9.63234
194 2 1.6 20.8 1.6 -9.51956
195 1 3.2 19.2 0 -11.698
196 3 4.8 20.8 1.6 -11.0413
197 1 6.4 19.2 0 -11.6915
198 2 8 20.8 1.6 -9.63392
199 1 9.6 19.2 0 -11.6666
200 2 11.2 20.8 1.6 -9.70059
201 1 12.8 19.2 0 -11.6661
202 2 14.4 20.8 1.6 -9.75545
203 1 16 19.2 0 -11.7009
204 2 17.6 20.8 1.6 -9.73228
205 1 19.2 19.2 0 -11.627
206 2 20.8 20.8 1.6 -9.56928
207 1 22.4 19.2 0 -11.5938
208 2 24 20.8 1.6 -9.56949
209 1 25.6 19.2 0 -11.599
210 1 27.2 20.8 1.6 -11.4251
211 1 28.8 19.2 0 -11.5811
212 2 30.4 20.8 1.6 -9.49533
213 1 32 19.2 0 -11.6671
214 2 33.6 20.8 1.6 -9.62682
215 1 35.2 19.2 0 -11.5943
216 2 36.8 20.8 1.6 -9.58284
217 1 38.4 19.2 0 -11.6324
218 2 40 20.8 1.6 -9.56164
219 2 41.6 19.2 0 -9.55705
220 1 43.2 20.8 1.6 -11.2916
221 1 44.8 19.2 0 -11.4398
222 2 46.4 20.8 1.6 -9.64536
223 2 48 19.2 0 -9.71065
224 1 49.6 20.8 1.6 -11.5016
225 1 0 22.4 0 -11.4246
226 1 1.6 24 1.6 -11.3207
227 1 3.2 22.4 0 -11.4948
228 2 4.8 24 1.6 -9.51952
229 1 6.4 22.4 0 -11.698
230 2 8 24 1.6 -9.64438
231 1 9.6 22.4 0 -11.6324
232 2 11.2 24 1.6 -9.63326
233 1 12.8 22.4 0 -11.6324
234 2 14.4 24 1.6 -9.63342
235 1 16 22.4 0 -11.6661
236 2 17.6 24 1.6 -9.63809
237 1 19.2 22.4 0 -11.6012
238 1 20.8 24 1.6 -11.4134
239 1 22.4 22.4 0 -11.4914
240 1 24 24 1.6 -11.3679
241 1 25.6 22.4 0 -11.4181
242 1 27.2 24 1.6 -11.4484
243 1 28.8 22.4 0 -11.447
244 1 30.4 24 1.6 -11.61
245 2 32 22.4 0 -9.63876
246 2 33.6 24 1.6 -9.60332
247 1 35.2 22.4 0 -11.5663
248 2 36.8 24 1.6 -9.58388
249 1 38.4 22.4 0 -11.6324
250 2 40 24 1.6 -9.49037
251 1 41.6 22.4 0 -11.4914
252 1 43.2 24 1.6 -11.325
253 2 44.8 22.4 0 -9.51489
254 2 46.4 24 1.6 -9.65814
255 2 48 22.4 0 -9.66687
256 2 49.6 24 1.6 -9.4895
257 2 0 25.6 0 -9.5742
259 1 3.2 25.6 0 -11.5027
261 2 6.4 25.6 0 -9.67619
263 1 9.6 25.6 0 -11.6114
265 1 12.8 25.6 0 -11.627
267 1 16 25.6 0 -11.627
269 1 19.2 25.6 0 -11.567
271 1 22.4 25.6 0 -11.4686
273 1 25.6 25.6 0 -11.5126
275 2 28.8 25.6 0 -9.53078
277 2 32 25.6 0 -9.59622
279 1 35.2 25.6 0 -11.4019
281 1 38.4 25.6 0 -11.4705
283 2 41.6 25.6 0 -9.56832
285 3 44.8 25.6 0 -10.9924
287 2 48 25.6 0 -9.69725
258 2 1.6 27.2 1.6 -9.48618
289 2 0 28.8 0 -9.7113
260 1 4.8 27.2 1.6 -11.5757
291 2 3.2 28.8 0 -9.67375
262 2 8 27.2 1.6 -9.7237
293 3 6.4 28.8 0 -11.1569
264 2 11.2 27.2 1.6 -9.63366
295 2 9.6 28.8 0 -9.60948
266 2 14.4 27.2 1.6 -9.51007
297 1 12.8 28.8 0 -11.6018
268 2 17.6 27.2 1.6 -9.5622
299 1 16 28.8 0 -11.5514
270 2 20.8 27.2 1.6 -9.57294
301 1 19.2 28.8 0 -11.5192
272 2 24 27.2 1.6 -9.62968
303 1 22.4 28.8 0 -11.6991
305 2 25.6 28.8 0 -9.71995
274 1 27.2 27.2 1.6 -11.6752
307 2 28.8 28.8 0 -9.59881
276 1 30.4 27.2 1.6 -11.718
309 2 32 28.8 0 -9.58388
278 1 33.6 27.2 1.6 -11.6076
311 2 35.2 28.8 0 -9.48274
280 2 36.8 27.2 1.6 -9.58891
313 2 38.4 28.8 0 -9.66
282 1 40 27.2 1.6 -11.5804
315 3 41.6 28.8 0 -11.0851
284 1 43.2 27.2 1.6 -11.4848
317 2 44.8 28.8 0 -9.59738
286 1 46.4 27.2 1.6 -11.4741
319 2 48 28.8 0 -9.56931
288 1 49.6 27.2 1.6 -11.4899
290 1 1.6 30.4 1.6 -11.5859
321 2 0 32 0 -9.60125
292 1 4.8 30.4 1.6 -11.6651
323 2 3.2 32 0 -9.54932
294 1 8 30.4 1.6 -11.5815
325 2 6.4 32 0 -9.66317
296 1 11.2 30.4 1.6 -11.444
327 1 9.6 32 0 -11.4522
298 2 14.4 30.4 1.6 -9.4902
329 1 12.8 32 0 -11.5916
300 2 17.6 30.4 1.6 -9.47712
331 1 16 32 0 -11.5493
302 2 20.8 30.4 1.6 -9.63323
333 1 19.2 32 0 -11.5509
304 2 24 30.4 1.6 -9.7904
335 1 22.4 32 0 -11.7293
337 1 25.6 32 0 -11.6705
306 1 27.2 30.4 1.6 -11.5507
339 1 28.8 32 0 -11.4696
308 1 30.4 30.4 1.6 -11.5871
341 2 32 32 0 -9.59498
310 1 33.6 30.4 1.6 -11.6889
343 2 35.2 32 0 -9.55044
312 1 36.8 30.4 1.6 -11.7586
345 3 38.4 32 0 -11.084
314 1 40 30.4 1.6 -11.7519
347 3 41.6 32 0 -11.08
316 1 43.2 30.4 1.6 -11.5843
349 1 44.8 32 0 -11.5256
318 2 46.4 30.4 1.6 -9.5313
351 1 48 32 0 -11.6451
320 2 49.6 30.4 1.6 -9.60419
322 1 1.6 33.6 1.6 -11.489
353 1 0 35.2 0 -11.5494
324 1 4.8 33.6 1.6 -11.6278
355 2 3.2 35.2 0 -9.56097
326 1 8 33.6 1.6 -11.6547
357 3 6.4 35.2 0 -11.1212
328 1 11.2 33.6 1.6 -11.6174
359 2 9.6 35.2 0 -9.67404
330 2 14.4 33.6 1.6 -9.72695
361 2 12.8 35.2 0 -9.72711
332 2 17.6 33.6 1.6 -9.6008
363 1 16 35.2 0 -11.6581
334 2 20.8 33.6 1.6 -9.51987
365 1 19.2 35.2 0 -11.5505
336 2 24 33.6 1.6 -9.73234
367 1 22.4 35.2 0 -11.6108
369 1 25.6 35.2 0 -11.6579
338 2 27.2 33.6 1.6 -9.66098
371 1 28.8 35.2 0 -11.665
340 2 30.4 33.6 1.6 -9.73826
373 2 32 35.2 0 -9.6542
342 1 33.6 33.6 1.6 -11.6401
375 1 35.2 35.2 0 -11.2919
344 1 36.8 33.6 1.6 -11.6421
377 2 38.4 35.2 0 -9.48813
346 1 40 33.6 1.6 -11.6908
379 1 41.6 35.2 0 -11.5094
348 2 43.2 33.6 1.6 -9.70583
381 1 44.8 35.2 0 -11.6557
350 3 46.4 33.6 1.6 -11.0851
383 1 48 35.2 0 -11.7005
352 3 49.6 33.6 1.6 -11.0374
354 2 1.6 36.8 1.6 -9.56025
385 3 0 38.4 0 -11.0794
356 1 4.8 36.8 1.6 -11.5897
387 3 3.2 38.4 0 -11.0818
358 1 8 36.8 1.6 -11.6889
389 2 6.4 38.4 0 -9.61609
360 1 11.2 36.8 1.6 -11.6964
391 2 9.6 38.4 0 -9.56289
362 1 14.4 36.8 1.6 -11.6371
393 2 12.8 38.4 0 -9.67317
364 2 17.6 36.8 1.6 -9.5979
395 1 16 38.4 0 -11.6066
366 1 20.8 36.8 1.6 -11.2225
397 1 19.2 38.4 0 -11.5544
368 2 24 36.8 1.6 -9.55106
399 1 22.4 38.4 0 -11.5509
401 1 25.6 38.4 0 -11.5514
370 3 27.2 36.8 1.6 -10.9722
403 2 28.8 38.4 0 -9.57061
372 2 30.4 36.8 1.6 -9.75583
405 2 32 38.4 0 -9.65186
374 1 33.6 36.8 1.6 -11.4893
407 2 35.2 38.4 0 -9.41409
376 1 36.8 36.8 1.6 -11.5258
409 2 38.4 38.4 0 -9.55617
378 1 40 36.8 1.6 -11.5972
411 2 41.6 38.4 0 -9.63883
380 2 43.2 36.8 1.6 -9.67304
413 1 44.8 38.4 0 -11.5463
382 3 46.4 36.8 1.6 -11.0373
415 2 48 38.4 0 -9.60713
384 2 49.6 36.8 1.6 -9.70564
386 1 1.6 40 1.6 -11.5952
417 3 0 41.6 0 -11.1287
388 1 4.8 40 1.6 -11.5612
419 3 3.2 41.6 0 -10.9973
390 1 8 40 1.6 -11.5451
421 2 6.4 41.6 0 -9.59475
392 2 11.2 40 1.6 -9.56181
423 1 9.6 41.6 0 -11.4705
394 1 14.4 40 1.6 -11.5199
425 1 12.8 41.6 0 -11.5998
396 2 17.6 40 1.6 -9.60426
427 1 16 41.6 0 -11.667
398 2 20.8 40 1.6 -9.51438
429 1 19.2 41.6 0 -11.6578
400 2 24 40 1.6 -9.5958
431 1 22.4 41.6 0 -11.6621
433 2 25.6 41.6 0 -9.63001
402 1 27.2 40 1.6 -11.3687
435 3 28.8 41.6 0 -10.9032
404 1 30.4 40 1.6 -11.4775
437 2 32 41.6 0 -9.52651
406 2 33.6 40 1.6 -9.49732
439 1 35.2 41.6 0 -11.479
408 2 36.8 40 1.6 -9.63919
441 2 38.4 41.6 0 -9.63242
410 1 40 40 1.6 -11.6318
443 2 41.6 41.6 0 -9.56164
412 1 43.2 40 1.6 -11.58
445 2 44.8 41.6 0 -9.53101
414 1 46.4 40 1.6 -11.5309
447 3 48 41.6 0 -10.9976
416 1 49.6 40 1.6 -11.6361
418 1 1.6 43.2 1.6 -11.4742
449 2 0 44.8 0 -9.56477
420 1 4.8 43.2 1.6 -11.5507
451 2 3.2 44.8 0 -9.61086
422 2 8 43.2 1.6 -9.60435
453 2 6.4 44.8 0 -9.67314
424 2 11.2 43.2 1.6 -9.54977
455 1 9.6 44.8 0 -11.5777
426 2 14.4 43.2 1.6 -9.49308
457 1 12.8 44.8 0 -11.493
428 2 17.6 43.2 1.6 -9.52015
459 1 16 44.8 0 -11.3835
430 2 20.8 43.2 1.6 -9.51439
461 1 19.2 44.8 0 -11.4685
432 3 24 43.2 1.6 -11.1461
463 1 22.4 44.8 0 -11.5834
465 2 25.6 44.8 0 -9.72549
434 1 27.2 43.2 1.6 -11.5354
467 2 28.8 44.8 0 -9.73325
436 1 30.4 43.2 1.6 -11.5627
469 2 32 44.8 0 -9.72706
438 1 33.6 43.2 1.6 -11.5215
471 2 35.2 44.8 0 -9.70362
440 2 36.8 43.2 1.6 -9.75764
473 2 38.4 44.8 0 -9.69467
442 1 40 43.2 1.6 -11.6661
475 2 41.6 44.8 0 -9.61609
444 1 43.2 43.2 1.6 -11.627
477 2 44.8 44.8 0 -9.58284
446 1 46.4 43.2 1.6 -11.6889
479 3 48 44.8 0 -11.0859
448 1 49.6 43.2 1.6 -11.6909
450 2 1.6 46.4 1.6 -9.53129
481 1 0 48 0 -11.4937
452 2 4.8 46.4 1.6 -9.66654
483 1 3.2 48 0 -11.5978
454 3 8 46.4 1.6 -11.0391
485 1 6.4 48 0 -11.6289
456 2 11.2 46.4 1.6 -9.62594
487 1 9.6 48 0 -11.6769
458 1 14.4 46.4 1.6 -11.2425
489 2 12.8 48 0 -9.60006
460 1 17.6 46.4 1.6 -11.1144
491 1 16 48 0 -11.4783
462 1 20.8 46.4 1.6 -11.2546
493 1 19.2 48 0 -11.5632
464 2 24 46.4 1.6 -9.67211
495 1 22.4 48 0 -11.6151
497 1 25.6 48 0 -11.6429
466 1 27.2 46.4 1.6 -11.6024
499 2 28.8 48 0 -9.78334
468 2 30.4 46.4 1.6 -9.70691
501 3 32 48 0 -11.2012
470 1 33.6 46.4 1.6 -11.6932
503 2 35.2 48 0 -9.72666
472 1 36.8 46.4 1.6 -11.6691
505 2 38.4 48 0 -9.60308
474 1 40 46.4 1.6 -11.6612
507 3 41.6 48 0 -10.9965
476 1 43.2 46.4 1.6 -11.6612
509 2 44.8 48 0 -9.66036
478 1 46.4 46.4 1.6 -11.6334
511 2 48 48 0 -9.53056
480 1 49.6 46.4 1.6 -11.5283
482 3 1.6 49.6 1.6 -11.0846
484 2 4.8 49.6 1.6 -9.64852
486 3 8 49.6 1.6 -11.0837
488 3 11.2 49.6 1.6 -11.1595
490 2 14.4 49.6 1.6 -9.66628
492 3 17.6 49.6 1.6 -10.9981
494 3 20.8 49.6 1.6 -10.9497
496 3 24 49.6 1.6 -11.1223
498 2 27.2 49.6 1.6 -9.6102
500 2 30.4 49.6 1.6 -9.81456
502 1 33.6 49.6 1.6 -11.6386
504 1 36.8 49.6 1.6 -11.5443
506 1 40 49.6 1.6 -11.5483
508 1 43.2 49.6 1.6 -11.7039
510 2 46.4 49.6 1.6 -9.63861
512 2 49.6 49.6 1.6 -9.597
513 1 0 0 3.2 -11.8124
514 3 1.6 1.6 4.8 -11.1648
515 1 3.2 0 3.2 -11.7511
516 2 4.8 1.6 4.8 -9.67992
517 1 6.4 0 3.2 -11.6972
518 3 8 1.6 4.8 -10.9942
519 1 9.6 0 3.2 -11.6919
520 2 11.2 1.6 4.8 -9.58284
521 1 12.8 0 3.2 -11.6607
522 2 14.4 1.6 4.8 -9.75676
523 1 16 0 3.2 -11.6706
524 1 17.6 1.6 4.8 -11.6921
525 1 19.2 0 3.2 -11.5376
526 1 20.8 1.6 4.8 -11.5197
527 1 22.4 0 3.2 -11.5749
528 1 24 1.6 4.8 -11.6101
529 2 25.6 0 3.2 -9.66191
530 1 27.2 1.6 4.8 -11.4355
531 1 28.8 0 3.2 -11.5427
532 2 30.4 1.6 4.8 -9.67337
533 3 32 0 3.2 -11.216
534 3 33.6 1.6 4.8 -11.2143
535 2 35.2 0 3.2 -9.69502
536 2 36.8 1.6 4.8 -9.6668
537 2 38.4 0 3.2 -9.57227
538 2 40 1.6 4.8 -9.60414
539 2 41.6 0 3.2 -9.63868
540 2 43.2 1.6 4.8 -9.66971
541 2 44.8 0 3.2 -9.69605
542 2 46.4 1.6 4.8 -9.62835
543 1 48 0 3.2 -11.6665
544 3 49.6 1.6 4.8 -11.206
545 1 0 3.2 3.2 -11.7811
546 3 1.6 4.8 4.8 -11.1262
547 1 3.2 3.2 3.2 -11.7208
548 3 4.8 4.8 4.8 -11.0829
549 1 6.4 3.2 3.2 -11.6972
550 2 8 4.8 4.8 -9.64625
551 1 9.6 3.2 3.2 -11.662
552 2 11.2 4.8 4.8 -9.5492
553 1 12.8 3.2 3.2 -11.6332
554 2 14.4 4.8 4.8 -9.71864
555 2 16 3.2 3.2 -9.79446
556 2 17.6 4.8 4.8 -9.81618
557 2 19.2 3.2 3.2 -9.77426
558 1 20.8 4.8 4.8 -11.657
559 2 22.4 3.2 3.2 -9.71756
560 1 24 4.8 4.8 -11.5332
561 2 25.6 3.2 3.2 -9.70235
562 2 27.2 4.8 4.8 -9.56941
563 1 28.8 3.2 3.2 -11.6047
564 2 30.4 4.8 4.8 -9.62625
565 2 32 3.2 3.2 -9.72789
566 2 33.6 4.8 4.8 -9.73564
567 1 35.2 3.2 3.2 -11.623
568 2 36.8 4.8 4.8 -9.65671
569 1 38.4 3.2 3.2 -11.6117
570 2 40 4.8 4.8 -9.55044
571 1 41.6 3.2 3.2 -11.5767
572 3 43.2 4.8 4.8 -10.996
573 1 44.8 3.2 3.2 -11.5781
574 2 46.4 4.8 4.8 -9.67791
575 1 48 3.2 3.2 -11.6181
576 3 49.6 4.8 4.8 -11.0829
577 1 0 6.4 3.2 -11.5823
578 2 1.6 8 4.8 -9.59348
579 1 3.2 6.4 3.2 -11.698
580 2 4.8 8 4.8 -9.75522
581 1 6.4 6.4 3.2 -11.7013
582 2 8 8 4.8 -9.66894
583 1 9.6 6.4 3.2 -11.599
584 2 11.2 8 4.8 -9.57486
585 1 12.8 6.4 3.2 -11.5179
586 2 14.4 8 4.8 -9.7011
587 1 16 6.4 3.2 -11.7301
588 2 17.6 8 4.8 -9.72853
589 1 19.2 6.4 3.2 -11.6699
590 1 20.8 8 4.8 -11.5086
591 2 22.4 6.4 3.2 -9.58887
592 1 24 8 4.8 -11.477
593 1 25.6 6.4 3.2 -11.5351
594 2 27.2 8 4.8 -9.56232
595 1 28.8 6.4 3.2 -11.5932
596 2 30.4 8 4.8 -9.68936
597 1 32 6.4 3.2 -11.599
598 3 33.6 8 4.8 -10.9907
599 1 35.2 6.4 3.2 -11.5839
600 2 36.8 8 4.8 -9.58445
601 1 38.4 6.4 3.2 -11.5179
602 1 40 8 4.8 -11.3325
603 1 41.6 6.4 3.2 -11.5781
604 2 43.2 8 4.8 -9.63401
605 1 44.8 6.4 3.2 -11.6297
606 3 46.4 8 4.8 -11.1174
607 1 48 6.4 3.2 -11.5821
608 2 49.6 8 4.8 -9.57956
609 1 0 9.6 3.2 -11.4705
610 1 1.6 11.2 4.8 -11.4167
611 2 3.2 9.6 3.2 -9.62105
612 2 4.8 11.2 4.8 -9.60462
613 2 6.4 9.6 3.2 -9.7514
614 1 8 11.2 4.8 -11.4353
615 2 9.6 9.6 3.2 -9.64255
616 2 11.2 11.2 4.8 -9.56581
617 1 12.8 9.6 3.2 -11.6033
618 2 14.4 11.2 4.8 -9.70076
619 1 16 9.6 3.2 -11.6966
620 2 17.6 11.2 4.8 -9.72863
621 1 19.2 9.6 3.2 -11.5521
622 1 20.8 11.2 4.8 -11.4726
623 1 22.4 9.6 3.2 -11.5333
624 2 24 11.2 4.8 -9.56582
625 1 25.6 9.6 3.2 -11.5334
626 1 27.2 11.2 4.8 -11.5099
627 1 28.8 9.6 3.2 -11.6004
628 3 30.4 11.2 4.8 -11.0695
629 1 32 9.6 3.2 -11.6616
630 2 33.6 11.2 4.8 -9.67812
631 1 35.2 9.6 3.2 -11.6275
632 2 36.8 11.2 4.8 -9.514
633 1 38.4 9.6 3.2 -11.4921
634 1 40 11.2 4.8 -11.3459
635 2 41.6 9.6 3.2 -9.51093
636 1 43.2 11.2 4.8 -11.4377
637 1 44.8 9.6 3.2 -11.5385
638 2 46.4 11.2 4.8 -9.7725
639 1 48 9.6 3.2 -11.6339
640 2 49.6 11.2 4.8 -9.6948
641 2 0 12.8 3.2 -9.56848
642 1 1.6 14.4 4.8 -11.4468
643 1 3.2 12.8 3.2 -11.5411
644 3 4.8 14.4 4.8 -10.9507
645 1 6.4 12.8 3.2 -11.66
646 2 8 14.4 4.8 -9.58652
647 1 9.6 12.8 3.2 -11.6309
648 2 11.2 14.4 4.8 -9.66085
649 1 12.8 12.8 3.2 -11.6564
650 2 14.4 14.4 4.8 -9.67247
651 1 16 12.8 3.2 -11.7009
652 2 17.6 14.4 4.8 -9.63242
653 1 19.2 12.8 3.2 -11.562
654 1 20.8 14.4 4.8 -11.4049
655 1 22.4 12.8 3.2 -11.5177
656 1 24 14.4 4.8 -11.4748
657 1 25.6 12.8 3.2 -11.4854
658 1 27.2 14.4 4.8 -11.3856
659 1 28.8 12.8 3.2 -11.5229
660 2 30.4 14.4 4.8 -9.56484
661 1 32 12.8 3.2 -11.6616
662 3 33.6 14.4 4.8 -10.9955
663 1 35.2 12.8 3.2 -11.6275
664 2 36.8 14.4 4.8 -9.68914
665 1 38.4 12.8 3.2 -11.4959
666 2 40 14.4 4.8 -9.51918
667 1 41.6 12.8 3.2 -11.3729
668 2 43.2 14.4 4.8 -9.52842
669 2 44.8 12.8 3.2 -9.59302
670 3 46.4 14.4 4.8 -11.0645
671 2 48 12.8 3.2 -9.7206
672 2 49.6 14.4 4.8 -9.67432
673 1 0 16 3.2 -11.4432
674 2 1.6 17.6 4.8 -9.41135
675 1 3.2 16 3.2 -11.585
676 2 4.8 17.6 4.8 -9.5989
677 1 6.4 16 3.2 -11.7205
678 2 8 17.6 4.8 -9.66959
679 1 9.6 16 3.2 -11.6885
680 2 11.2 17.6 4.8 -9.64132
681 1 12.8 16 3.2 -11.6758
682 1 14.4 17.6 4.8 -11.6568
683 1 16 16 3.2 -11.6426
684 2 17.6 17.6 4.8 -9.66697
685 1 19.2 16 3.2 -11.5558
686 2 20.8 17.6 4.8 -9.57264
687 1 22.4 16 3.2 -11.5612
688 2 24 17.6 4.8 -9.63879
689 1 25.6 16 3.2 -11.5013
690 1 27.2 17.6 4.8 -11.5013
691 1 28.8 16 3.2 -11.4186
692 1 30.4 17.6 4.8 -11.4096
693 1 32 16 3.2 -11.5502
694 2 33.6 17.6 4.8 -9.6293
695 1 35.2 16 3.2 -11.6972
696 3 36.8 17.6 4.8 -11.1202
697 2 38.4 16 3.2 -9.64468
698 2 40 17.6 4.8 -9.65689
699 1 41.6 16 3.2 -11.4633
700 2 43.2 17.6 4.8 -9.5553
701 1 44.8 16 3.2 -11.4402
702 2 46.4 17.6 4.8 -9.68608
703 1 48 16 3.2 -11.4449
704 1 49.6 17.6 4.8 -11.4157
705 1 0 19.2 3.2 -11.4741
706 2 1.6 20.8 4.8 -9.47713
707 1 3.2 19.2 3.2 -11.627
708 2 4.8 20.8 4.8 -9.60505
709 1 6.4 19.2 3.2 -11.6302
710 1 8 20.8 4.8 -11.5197
711 1 9.6 19.2 3.2 -11.6201
712 1 11.2 20.8 4.8 -11.6104
713 2 12.8 19.2 3.2 -9.7015
714 1 14.4 20.8 4.8 -11.6957
715 2 16 19.2 3.2 -9.73458
716 1 17.6 20.8 4.8 -11.7003
717 1 19.2 19.2 3.2 -11.5854
718 1 20.8 20.8 4.8 -11.6074
719 1 22.4 19.2 3.2 -11.5851
720 1 24 20.8 4.8 -11.6758
721 2 25.6 19.2 3.2 -9.57056
722 1 27.2 20.8 4.8 -11.592
723 1 28.8 19.2 3.2 -11.4088
724 1 30.4 20.8 4.8 -11.5112
725 1 32 19.2 3.2 -11.4901
726 2 33.6 20.8 4.8 -9.66504
727 1 35.2 19.2 3.2 -11.6574
728 3 36.8 20.8 4.8 -11.0851
729 1 38.4 19.2 3.2 -11.6931
730 2 40 20.8 4.8 -9.61575
731 1 41.6 19.2 3.2 -11.4914
732 2 43.2 20.8 4.8 -9.47597
733 1 44.8 19.2 3.2 -11.505
734 2 46.4 20.8 4.8 -9.70082
735 2 48 19.2 3.2 -9.56295
736 2 49.6 20.8 4.8 -9.48983
737 1 0 22.4 3.2 -11.4473
738 2 1.6 24 4.8 -9.43367
739 1 3.2 22.4 3.2 -11.5509
740 2 4.8 24 4.8 -9.49263
741 1 6.4 22.4 3.2 -11.5781
742 1 8 24 4.8 -11.5223
743 2 9.6 22.4 3.2 -9.562
744 1 11.2 24 4.8 -11.5443
745 2 12.8 22.4 3.2 -9.69498
746 1 14.4 24 4.8 -11.5227
747 2 16 22.4 3.2 -9.72853
748 1 17.6 24 4.8 -11.6595
749 2 19.2 22.4 3.2 -9.67335
750 1 20.8 24 4.8 -11.644
751 2 22.4 22.4 3.2 -9.53436
752 1 24 24 4.8 -11.6182
753 2 25.6 22.4 3.2 -9.59514
754 1 27.2 24 4.8 -11.6606
755 2 28.8 22.4 3.2 -9.4501
756 1 30.4 24 4.8 -11.6277
757 1 32 22.4 3.2 -11.5853
758 2 33.6 24 4.8 -9.70611
759 1 35.2 22.4 3.2 -11.6566
760 3 36.8 24 4.8 -11.0408
761 1 38.4 22.4 3.2 -11.6582
762 2 40 24 4.8 -9.5455
763 1 41.6 22.4 3.2 -11.3516
764 1 43.2 24 4.8 -11.2258
765 1 44.8 22.4 3.2 -11.4082
766 2 46.4 24 4.8 -9.48301
767 1 48 22.4 3.2 -11.6111
768 2 49.6 24 4.8 -9.62725
769 1 0 25.6 3.2 -11.4374
771 1 3.2 25.6 3.2 -11.346
773 1 6.4 25.6 3.2 -11.5108
775 1 9.6 25.6 3.2 -11.5771
777 1 12.8 25.6 3.2 -11.47
779 1 16 25.6 3.2 -11.4375
781 2 19.2 25.6 3.2 -9.53792
783 1 22.4 25.6 3.2 -11.4247
785 2 25.6 25.6 3.2 -9.52514
787 3 28.8 25.6 3.2 -11.0851
789 3 32 25.6 3.2 -11.0796
791 1 35.2 25.6 3.2 -11.6002
793 1 38.4 25.6 3.2 -11.621
795 1 41.6 25.6 3.2 -11.3849
797 1 44.8 25.6 3.2 -11.3617
799 1 48 25.6 3.2 -11.5267
770 1 1.6 27.2 4.8 -11.32
801 1 0 28.8 3.2 -11.4886
772 1 4.8 27.2 4.8 -11.4176
803 2 3.2 28.8 3.2 -9.57454
774 2 8 27.2 4.8 -9.69422
805 2 6.4 28.8 3.2 -9.74322
776 2 11.2 27.2 4.8 -9.66043
807 2 9.6 28.8 3.2 -9.6941
778 1 14.4 27.2 4.8 -11.4209
809 1 12.8 28.8 3.2 -11.4729
780 1 17.6 27.2 4.8 -11.5042
811 1 16 28.8 3.2 -11.4167
782 1 20.8 27.2 4.8 -11.5978
813 1 19.2 28.8 3.2 -11.5223
784 1 24 27.2 4.8 -11.634
815 2 22.4 28.8 3.2 -9.66394
817 2 25.6 28.8 3.2 -9.72463
786 1 27.2 27.2 4.8 -11.6893
819 3 28.8 28.8 3.2 -11.0381
788 1 30.4 27.2 4.8 -11.7808
821 3 32 28.8 3.2 -11.1674
790 1 33.6 27.2 4.8 -11.6371
823 2 35.2 28.8 3.2 -9.72824
792 2 36.8 27.2 4.8 -9.75125
825 3 38.4 28.8 3.2 -11.1882
794 2 40 27.2 4.8 -9.72019
827 2 41.6 28.8 3.2 -9.7012
796 2 43.2 27.2 4.8 -9.55027
829 1 44.8 28.8 3.2 -11.4705
798 2 46.4 27.2 4.8 -9.62134
831 1 48 28.8 3.2 -11.5279
800 2 49.6 27.2 4.8 -9.54235
802 2 1.6 30.4 4.8 -9.59833
833 1 0 32 3.2 -11.5776
804 2 4.8 30.4 4.8 -9.69411
835 2 3.2 32 3.2 -9.62665
806 1 8 30.4 4.8 -11.7039
837 2 6.4 32 3.2 -9.72106
808 1 11.2 30.4 4.8 -11.6356
839 2 9.6 32 3.2 -9.54538
810 1 14.4 30.4 4.8 -11.512
841 2 12.8 32 3.2 -9.52676
812 2 17.6 30.4 4.8 -9.49068
843 1 16 32 3.2 -11.545
814 1 20.8 30.4 4.8 -11.5781
845 1 19.2 32 3.2 -11.4709
816 1 24 30.4 4.8 -11.6661
847 2 22.4 32 3.2 -9.62703
849 2 25.6 32 3.2 -9.63208
818 1 27.2 30.4 4.8 -11.5856
851 1 28.8 32 3.2 -11.4483
820 1 30.4 30.4 4.8 -11.682
853 3 32 32 3.2 -11.123
822 1 33.6 30.4 4.8 -11.7205
855 3 35.2 32 3.2 -11.0843
824 1 36.8 30.4 4.8 -11.7245
857 3 38.4 32 3.2 -11.1671
826 1 40 30.4 4.8 -11.6598
859 2 41.6 32 3.2 -9.7023
828 2 43.2 30.4 4.8 -9.63822
861 1 44.8 32 3.2 -11.5969
830 2 46.4 30.4 4.8 -9.62636
863 1 48 32 3.2 -11.6569
832 2 49.6 30.4 4.8 -9.65722
834 2 1.6 33.6 4.8 -9.56135
865 1 0 35.2 3.2 -11.5917
836 2 4.8 33.6 4.8 -9.72304
867 1 3.2 35.2 3.2 -11.4719
838 1 8 33.6 4.8 -11.7568
869 3 6.4 35.2 3.2 -11.0828
840 1 11.2 33.6 4.8 -11.7508
871 3 9.6 35.2 3.2 -11.1268
842 1 14.4 33.6 4.8 -11.6559
873 3 12.8 35.2 3.2 -11.2028
844 1 17.6 33.6 4.8 -11.5495
875 3 16 35.2 3.2 -11.1004
846 1 20.8 33.6 4.8 -11.4182
877 1 19.2 35.2 3.2 -11.3916
848 1 24 33.6 4.8 -11.5657
879 1 22.4 35.2 3.2 -11.3551
881 2 25.6 35.2 3.2 -9.65416
850 1 27.2 33.6 4.8 -11.566
883 2 28.8 35.2 3.2 -9.69579
852 1 30.4 33.6 4.8 -11.657
885 3 32 35.2 3.2 -11.1491
854 1 33.6 33.6 4.8 -11.7529
887 2 35.2 35.2 3.2 -9.54409
856 1 36.8 33.6 4.8 -11.7528
889 3 38.4 35.2 3.2 -11.0846
858 1 40 33.6 4.8 -11.7008
891 2 41.6 35.2 3.2 -9.72817
860 2 43.2 33.6 4.8 -9.70112
893 1 44.8 35.2 3.2 -11.6971
862 2 46.4 33.6 4.8 -9.58272
895 1 48 35.2 3.2 -11.7242
864 2 49.6 33.6 4.8 -9.61563
866 2 1.6 36.8 4.8 -9.5097
897 1 0 38.4 3.2 -11.6016
868 1 4.8 36.8 4.8 -11.4565
899 1 3.2 38.4 3.2 -11.4218
870 1 8 36.8 4.8 -11.6103
901 2 6.4 38.4 3.2 -9.53104
872 1 11.2 36.8 4.8 -11.7183
903 2 9.6 38.4 3.2 -9.59391
874 1 14.4 36.8 4.8 -11.7249
905 2 12.8 38.4 3.2 -9.59393
876 2 17.6 36.8 4.8 -9.6584
907 2 16 38.4 3.2 -9.67114
878 1 20.8 36.8 4.8 -11.3901
909 1 19.2 38.4 3.2 -11.4951
880 1 24 36.8 4.8 -11.471
911 1 22.4 38.4 3.2 -11.4385
913 1 25.6 38.4 3.2 -11.4212
882 1 27.2 36.8 4.8 -11.5148
915 1 28.8 38.4 3.2 -11.381
884 1 30.4 36.8 4.8 -11.6371
917 1 32 38.4 3.2 -11.4988
886 1 33.6 36.8 4.8 -11.619
919 1 35.2 38.4 3.2 -11.4194
888 1 36.8 36.8 4.8 -11.6411
921 2 38.4 38.4 3.2 -9.63363
890 1 40 36.8 4.8 -11.7289
923 2 41.6 38.4 3.2 -9.70074
892 2 43.2 36.8 4.8 -9.69472
925 1 44.8 38.4 3.2 -11.5702
894 2 46.4 36.8 4.8 -9.61598
927 1 48 38.4 3.2 -11.6102
896 3 49.6 36.8 4.8 -10.9952
898 2 1.6 40 4.8 -9.52606
929 2 0 41.6 3.2 -9.53184
900 2 4.8 40 4.8 -9.49271
931 1 3.2 41.6 3.2 -11.4012
902 1 8 40 4.8 -11.4682
933 2 6.4 41.6 3.2 -9.57872
904 1 11.2 40 4.8 -11.5458
935 1 9.6 41.6 3.2 -11.5223
906 1 14.4 40 4.8 -11.565
937 1 12.8 41.6 3.2 -11.5215
908 1 17.6 40 4.8 -11.5397
939 2 16 41.6 3.2 -9.57964
910 3 20.8 40 4.8 -10.9811
941 1 19.2 41.6 3.2 -11.5276
912 2 24 40 4.8 -9.6272
943 1 22.4 41.6 3.2 -11.6592
945 1 25.6 41.6 3.2 -11.3928
914 1 27.2 40 4.8 -11.2581
947 1 28.8 41.6 3.2 -11.2464
916 2 30.4 40 4.8 -9.51308
949 1 32 41.6 3.2 -11.5023
918 2 33.6 40 4.8 -9.65462
951 1 35.2 41.6 3.2 -11.5676
920 1 36.8 40 4.8 -11.6208
953 2 38.4 41.6 3.2 -9.70016
922 1 40 40 4.8 -11.6661
955 2 41.6 41.6 3.2 -9.66048
924 2 43.2 40 4.8 -9.6389
957 2 44.8 41.6 3.2 -9.56927
926 2 46.4 40 4.8 -9.56942
959 2 48 41.6 3.2 -9.70306
928 2 49.6 40 4.8 -9.67012
930 1 1.6 43.2 4.8 -11.3172
961 1 0 44.8 3.2 -11.4685
932 2 4.8 43.2 4.8 -9.52001
963 1 3.2 44.8 3.2 -11.4071
934 2 8 43.2 4.8 -9.57261
965 1 6.4 44.8 3.2 -11.6391
936 2 11.2 43.2 4.8 -9.63886
967 1 9.6 44.8 3.2 -11.626
938 2 14.4 43.2 4.8 -9.64416
969 1 12.8 44.8 3.2 -11.5565
940 1 17.6 43.2 4.8 -11.3631
971 1 16 44.8 3.2 -11.3095
942 2 20.8 43.2 4.8 -9.5996
973 1 19.2 44.8 3.2 -11.323
944 2 24 43.2 4.8 -9.62651
975 1 22.4 44.8 3.2 -11.6101
977 2 25.6 44.8 3.2 -9.7482
946 1 27.2 43.2 4.8 -11.3994
979 2 28.8 44.8 3.2 -9.65239
948 2 30.4 43.2 4.8 -9.65189
981 2 32 44.8 3.2 -9.7399
950 2 33.6 43.2 4.8 -9.77384
983 2 35.2 44.8 3.2 -9.70026
952 2 36.8 43.2 4.8 -9.74983
985 2 38.4 44.8 3.2 -9.72388
954 1 40 43.2 4.8 -11.6661
987 3 41.6 44.8 3.2 -10.9955
956 1 43.2 43.2 4.8 -11.5695
989 2 44.8 44.8 3.2 -9.5536
958 1 46.4 43.2 4.8 -11.4698
991 3 48 44.8 3.2 -10.9435
960 2 49.6 43.2 4.8 -9.60585
962 2 1.6 46.4 4.8 -9.50895
993 1 0 48 3.2 -11.61
964 2 4.8 46.4 4.8 -9.5832
995 1 3.2 48 3.2 -11.6893
966 2 8 46.4 4.8 -9.58332
997 1 6.4 48 3.2 -11.6915
968 2 11.2 46.4 4.8 -9.56136
999 1 9.6 48 3.2 -11.6893
970 2 14.4 46.4 4.8 -9.53932
1001 1 12.8 48 3.2 -11.6257
972 1 17.6 46.4 4.8 -11.3463
1003 1 16 48 3.2 -11.4602
974 2 20.8 46.4 4.8 -9.45381
1005 1 19.2 48 3.2 -11.413
976 3 24 46.4 4.8 -11.0648
1007 1 22.4 48 3.2 -11.5468
1009 1 25.6 48 3.2 -11.591
978 2 27.2 46.4 4.8 -9.51376
1011 1 28.8 48 3.2 -11.5174
980 1 30.4 46.4 4.8 -11.6504
1013 2 32 48 3.2 -9.75803
982 1 33.6 46.4 4.8 -11.6601
1015 2 35.2 48 3.2 -9.54884
984 1 36.8 46.4 4.8 -11.6666
1017 2 38.4 48 3.2 -9.58332
986 1 40 46.4 4.8 -11.6592
1019 2 41.6 48 3.2 -9.69232
988 1 43.2 46.4 4.8 -11.513
1021 2 44.8 48 3.2 -9.63145
990 1 46.4 46.4 4.8 -11.4115
1023 1 48 48 3.2 -11.582
992 2 49.6 46.4 4.8 -9.6073
994 3 1.6 49.6 4.8 -11.206
996 3 4.8 49.6 4.8 -11.0392
998 2 8 49.6 4.8 -9.64625
1000 2 11.2 49.6 4.8 -9.61586
1002 3 14.4 49.6 4.8 -11.0704
1004 2 17.6 49.6 4.8 -9.63444
1006 1 20.8 49.6 4.8 -11.4572
1008 2 24 49.6 4.8 -9.57478
1010 1 27.2 49.6 4.8 -11.3392
1012 2 30.4 49.6 4.8 -9.51312
1014 1 33.6 49.6 4.8 -11.6334
1016 1 36.8 49.6 4.8 -11.5257
1018 1 40 49.6 4.8 -11.6189
1020 2 43.2 49.6 4.8 -9.70158
1022 2 46.4 49.6 4.8 -9.66358
1024 3 49.6 49.6 4.8 -11.1252
1025 1 0 0 6.4 -11.8124
1026 2 1.6 1.6 8 -9.64566
1027 1 3.2 0 6.4 -11.7223
1028 2 4.8 1.6 8 -9.61504
1029 1 6.4 0 6.4 -11.662
1030 2 8 1.6 8 -9.58284
1031 1 9.6 0 6.4 -11.6279
1032 2 11.2 1.6 8 -9.54908
1033 1 12.8 0 6.4 -11.5989
1034 2 14.4 1.6 8 -9.66322
1035 2 16 0 6.4 -9.82188
1036 2 17.6 1.6 8 -9.74219
1037 2 19.2 0 6.4 -9.66972
1038 1 20.8 1.6 8 -11.601
1039 2 22.4 0 6.4 -9.48941
1040 1 24 1.6 8 -11.627
1041 2 25.6 0 6.4 -9.52554
1042 1 27.2 1.6 8 -11.5034
1043 1 28.8 0 6.4 -11.3123
1044 2 30.4 1.6 8 -9.52597
1045 1 32 0 6.4 -11.6252
1046 3 33.6 1.6 8 -11.0857
1047 1 35.2 0 6.4 -11.5318
1048 2 36.8 1.6 8 -9.61453
1049 1 38.4 0 6.4 -11.5313
1050 3 40 1.6 8 -11.0414
1051 1 41.6 0 6.4 -11.642
1052 2 43.2 1.6 8 -9.61761
1053 1 44.8 0 6.4 -11.6656
1054 3 46.4 1.6 8 -11.0832
1055 1 48 0 6.4 -11.7508
1056 3 49.6 1.6 8 -11.1657
1057 1 0 3.2 6.4 -11.7511
1058 2 1.6 4.8 8 -9.61479
1059 1 3.2 3.2 6.4 -11.7208
1060 3 4.8 4.8 8 -11.0832
1061 1 6.4 3.2 6.4 -11.6919
1062 2 8 4.8 8 -9.61552
1063 1 9.6 3.2 6.4 -11.6279
1064 2 11.2 4.8 8 -9.39639
1065 1 12.8 3.2 6.4 -11.5872
1066 1 14.4 4.8 8 -11.4546
1067 3 16 3.2 6.4 -11.2344
1068 1 17.6 4.8 8 -11.6303
1069 3 19.2 3.2 6.4 -11.1117
1070 1 20.8 4.8 8 -11.5875
1071 2 22.4 3.2 6.4 -9.58366
1072 1 24 4.8 8 -11.5978
1073 2 25.6 3.2 6.4 -9.5696
1074 2 27.2 4.8 8 -9.63886
1075 1 28.8 3.2 6.4 -11.4897
1076 2 30.4 4.8 8 -9.58343
1077 1 32 3.2 6.4 -11.7247
1078 3 33.6 4.8 8 -11.0774
1079 1 35.2 3.2 6.4 -11.7521
1080 3 36.8 4.8 8 -11.2016
1081 1 38.4 3.2 6.4 -11.6889
1082 3 40 4.8 8 -11.0381
1083 1 41.6 3.2 6.4 -11.6915
1084 2 43.2 4.8 8 -9.68014
1085 1 44.8 3.2 6.4 -11.6915
1086 3 46.4 4.8 8 -11.0837
1087 1 48 3.2 6.4 -11.7532
1088 2 49.6 4.8 8 -9.67747
1089 1 0 6.4 6.4 -11.6919
1090 2 1.6 8 8 -9.64875
1091 1 3.2 6.4 6.4 -11.7205
1092 3 4.8 8 8 -11.0835
1093 1 6.4 6.4 6.4 -11.7205
1094 3 8 8 8 -10.9469
1095 1 9.6 6.4 6.4 -11.5577
1096 1 11.2 8 8 -11.3762
1097 1 12.8 6.4 6.4 -11.4624
1098 1 14.4 8 8 -11.5251
1099 2 16 6.4 6.4 -9.72644
1100 1 17.6 8 8 -11.6713
1101 2 19.2 6.4 6.4 -9.66619
1102 1 20.8 8 8 -11.6612
1103 2 22.4 6.4 6.4 -9.55081
1104 1 24 8 8 -11.6581