 # Bcc Mo oriented X=[100] Y=[010] Z=[001].
  
        8192  atoms
           4  atom types
 
      0.000000000000      51.200000000000  xlo xhi
      0.000000000000      51.200000000000  ylo yhi
      0.000000000000      51.200000000000  zlo zhi
 
 
 
Atoms # atomic

1 3 0.0 0.0 0.0
2 1 1.6 1.6 1.6
3 3 3.2 0.0 0.0
4 1 4.8 1.6 1.6
5 3 6.4 0.0 0.0
6 1 8.0 1.6 1.6
7 3 9.6 0.0 0.0
8 1 11.2 1.6 1.6
9 3 12.8 0.0 0.0
10 1 14.4 1.6 1.6
11 3 16.0 0.0 0.0
12 4 17.6 1.6 1.6
13 3 19.2 0.0 0.0
14 1 20.8 1.6 1.6
15 3 22.4 0.0 0.0
16 1 24.0 1.6 1.6
17 3 25.6 0.0 0.0
18 1 27.2 1.6 1.6
19 3 28.8 0.0 0.0
20 1 30.4 1.6 1.6
21 3 32.0 0.0 0.0
22 1 33.6 1.6 1.6
23 3 35.2 0.0 0.0
24 1 36.8 1.6 1.6
25 3 38.4 0.0 0.0
26 1 40.0 1.6 1.6
27 3 41.6 0.0 0.0
28 4 43.2 1.6 1.6
29 3 44.8 0.0 0.0
30 1 46.4 1.6 1.6
31 3 48.0 0.0 0.0
32 1 49.6 1.6 1.6
33 3 0.0 3.2 0.0
34 1 1.6 4.8 1.6
35 3 3.2 3.2 0.0
36 1 4.8 4.8 1.6
37 3 6.4 3.2 0.0
38 1 8.0 4.8 1.6
39 3 9.6 3.2 0.0
40 1 11.2 4.8 1.6
41 3 12.8 3.2 0.0
42 1 14.4 4.8 1.6
43 3 16.0 3.2 0.0
44 4 17.6 4.8 1.6
45 3 19.2 3.2 0.0
46 1 20.8 4.8 1.6
47 3 22.4 3.2 0.0
48 1 24.0 4.8 1.6
49 3 25.6 3.2 0.0
50 1 27.2 4.8 1.6
51 3 28.8 3.2 0.0
52 1 30.4 4.8 1.6
53 3 32.0 3.2 0.0
54 1 33.6 4.8 1.6
55 3 35.2 3.2 0.0
56 1 36.8 4.8 1.6
57 3 38.4 3.2 0.0
58 4 40.0 4.8 1.6
59 3 41.6 3.2 0.0
60 1 43.2 4.8 1.6
61 3 44.8 3.2 0.0
62 1 46.4 4.8 1.6
63 3 48.0 3.2 0.0
64 1 49.6 4.8 1.6
65 3 0.0 6.4 0.0
66 1 1.6 8.0 1.6
67 3 3.2 6.4 0.0
68 1 4.8 8.0 1.6
69 3 6.4 6.4 0.0
70 1 8.0 8.0 1.6
71 3 9.6 6.4 0.0
72 4 11.2 8.0 1.6
73 3 12.8 6.4 0.0
74 1 14.4 8.0 1.6
75 3 16.0 6.4 0.0
76 1 17.6 8.0 1.6
77 3 19.2 6.4 0.0
78 1 20.8 8.0 1.6
79 3 22.4 6.4 0.0
80 4 24.0 8.0 1.6
81 3 25.6 6.4 0.0
82 4 27.2 8.0 1.6
83 3 28.8 6.4 0.0
84 4 30.4 8.0 1.6
85 3 32.0 6.4 0.0
86 1 33.6 8.0 1.6
87 3 35.2 6.4 0.0
88 4 36.8 8.0 1.6
89 3 38.4 6.4 0.0
90 1 40.0 8.0 1.6
91 3 41.6 6.4 0.0
92 1 43.2 8.0 1.6
93 3 44.8 6.4 0.0
94 1 46.4 8.0 1.6
95 3 48.0 6.4 0.0
96 1 49.6 8.0 1.6
97 3 0.0 9.6 0.0
98 4 1.6 11.2 1.6
99 3 3.2 9.6 0.0
100 1 4.8 11.2 1.6
101 3 6.4 9.6 0.0
102 4 8.0 11.2 1.6
103 3 9.6 9.6 0.0
104 4 11.2 11.2 1.6
105 2 12.8 9.6 0.0
106 4 14.4 11.2 1.6
107 2 16.0 9.6 0.0
108 4 17.6 11.2 1.6
109 3 19.2 9.6 0.0
110 4 20.8 11.2 1.6
111 3 22.4 9.6 0.0
112 1 24.0 11.2 1.6
113 4 25.6 9.6 0.0
114 4 27.2 11.2 1.6
115 2 28.8 9.6 0.0
116 4 30.4 11.2 1.6
117 3 32.0 9.6 0.0
118 1 33.6 11.2 1.6
119 3 35.2 9.6 0.0
120 4 36.8 11.2 1.6
121 2 38.4 9.6 0.0
122 4 40.0 11.2 1.6
123 2 41.6 9.6 0.0
124 4 43.2 11.2 1.6
125 3 44.8 9.6 0.0
126 4 46.4 11.2 1.6
127 2 48.0 9.6 0.0
128 4 49.6 11.2 1.6
129 2 0.0 12.8 0.0
130 4 1.6 14.4 1.6
131 4 3.2 12.8 0.0
132 2 4.8 14.4 1.6
133 2 6.4 12.8 0.0
134 4 8.0 14.4 1.6
135 3 9.6 12.8 0.0
136 4 11.2 14.4 1.6
137 2 12.8 12.8 0.0
138 1 14.4 14.4 1.6
139 3 16.0 12.8 0.0
140 1 17.6 14.4 1.6
141 2 19.2 12.8 0.0
142 4 20.8 14.4 1.6
143 2 22.4 12.8 0.0
144 2 24.0 14.4 1.6
145 2 25.6 12.8 0.0
146 4 27.2 14.4 1.6
147 4 28.8 12.8 0.0
148 4 30.4 14.4 1.6
149 2 32.0 12.8 0.0
150 4 33.6 14.4 1.6
151 3 35.2 12.8 0.0
152 4 36.8 14.4 1.6
153 3 38.4 12.8 0.0
154 4 40.0 14.4 1.6
155 3 41.6 12.8 0.0
156 4 43.2 14.4 1.6
157 2 44.8 12.8 0.0
158 3 46.4 14.4 1.6
159 3 48.0 12.8 0.0
160 2 49.6 14.4 1.6
161 1 0.0 16.0 0.0
162 2 1.6 17.6 1.6
163 4 3.2 16.0 0.0
164 2 4.8 17.6 1.6
165 1 6.4 16.0 0.0
166 4 8.0 17.6 1.6
167 4 9.6 16.0 0.0
168 3 11.2 17.6 1.6
169 4 12.8 16.0 0.0
170 2 14.4 17.6 1.6
171 4 16.0 16.0 0.0
172 4 17.6 17.6 1.6
173 2 19.2 16.0 0.0
174 4 20.8 17.6 1.6
175 3 22.4 16.0 0.0
176 4 24.0 17.6 1.6
177 2 25.6 16.0 0.0
178 2 27.2 17.6 1.6
179 4 28.8 16.0 0.0
180 2 30.4 17.6 1.6
181 2 32.0 16.0 0.0
182 2 33.6 17.6 1.6
183 4 35.2 16.0 0.0
184 3 36.8 17.6 1.6
185 2 38.4 16.0 0.0
186 4 40.0 17.6 1.6
187 4 41.6 16.0 0.0
188 2 43.2 17.6 1.6
189 4 44.8 16.0 0.0
190 2 46.4 17.6 1.6
191 4 48.0 16.0 0.0
192 2 49.6 17.6 1.6
193 1 0.0 19.2 0.0
194 2 1.6 20.8 1.6
195 1 3.2 19.2 0.0
196 3 4.8 20.8 1.6
197 1 6.4 19.2 0.0
198 3 8.0 20.8 1.6
199 1 9.6 19.2 0.0
200 3 11.2 20.8 1.6
201 1 12.8 19.2 0.0
202 3 14.4 20.8 1.6
203 4 16.0 19.2 0.0
204 2 17.6 20.8 1.6
205 2 19.2 19.2 0.0
206 2 20.8 20.8 1.6
207 4 22.4 19.2 0.0
208 2 24.0 20.8 1.6
209 1 25.6 19.2 0.0
210 4 27.2 20.8 1.6
211 4 28.8 19.2 0.0
212 2 30.4 20.8 1.6
213 1 32.0 19.2 0.0
214 2 33.6 20.8 1.6
215 4 35.2 19.2 0.0
216 4 36.8 20.8 1.6
217 4 38.4 19.2 0.0
218 3 40.0 20.8 1.6
219 4 41.6 19.2 0.0
220 3 43.2 20.8 1.6
221 1 44.8 19.2 0.0
222 3 46.4 20.8 1.6
223 1 48.0 19.2 0.0
224 2 49.6 20.8 1.6
225 4 0.0 22.4 0.0
226 3 1.6 24.0 1.6
227 1 3.2 22.4 0.0
228 3 4.8 24.0 1.6
229 1 6.4 22.4 0.0
230 4 8.0 24.0 1.6
231 1 9.6 22.4 0.0
232 3 11.2 24.0 1.6
233 1 12.8 22.4 0.0
234 3 14.4 24.0 1.6
235 1 16.0 22.4 0.0
236 4 17.6 24.0 1.6
237 4 19.2 22.4 0.0
238 4 20.8 24.0 1.6
239 4 22.4 22.4 0.0
240 4 24.0 24.0 1.6
241 4 25.6 22.4 0.0
242 2 27.2 24.0 1.6
243 4 28.8 22.4 0.0
244 2 30.4 24.0 1.6
245 1 32.0 22.4 0.0
246 3 33.6 24.0 1.6
247 1 35.2 22.4 0.0
248 3 36.8 24.0 1.6
249 4 38.4 22.4 0.0
250 3 40.0 24.0 1.6
251 4 41.6 22.4 0.0
252 3 43.2 24.0 1.6
253 4 44.8 22.4 0.0
254 3 46.4 24.0 1.6
255 1 48.0 22.4 0.0
256 3 49.6 24.0 1.6
257 1 0.0 25.6 0.0
258 3 1.6 27.2 1.6
259 1 3.2 25.6 0.0
260 3 4.8 27.2 1.6
261 1 6.4 25.6 0.0
262 3 8.0 27.2 1.6
263 1 9.6 25.6 0.0
264 3 11.2 27.2 1.6
265 1 12.8 25.6 0.0
266 3 14.4 27.2 1.6
267 1 16.0 25.6 0.0
268 3 17.6 27.2 1.6
269 1 19.2 25.6 0.0
270 4 20.8 27.2 1.6
271 2 22.4 25.6 0.0
272 2 24.0 27.2 1.6
273 4 25.6 25.6 0.0
274 3 27.2 27.2 1.6
275 4 28.8 25.6 0.0
276 2 30.4 27.2 1.6
277 1 32.0 25.6 0.0
278 2 33.6 27.2 1.6
279 1 35.2 25.6 0.0
280 2 36.8 27.2 1.6
281 4 38.4 25.6 0.0
282 4 40.0 27.2 1.6
283 4 41.6 25.6 0.0
284 2 43.2 27.2 1.6
285 1 44.8 25.6 0.0
286 2 46.4 27.2 1.6
287 1 48.0 25.6 0.0
288 3 49.6 27.2 1.6
289 1 0.0 28.8 0.0
290 3 1.6 30.4 1.6
291 1 3.2 28.8 0.0
292 3 4.8 30.4 1.6
293 1 6.4 28.8 0.0
294 3 8.0 30.4 1.6
295 1 9.6 28.8 0.0
296 3 11.2 30.4 1.6
297 1 12.8 28.8 0.0
298 3 14.4 30.4 1.6
299 1 16.0 28.8 0.0
300 2 17.6 30.4 1.6
301 1 19.2 28.8 0.0
302 2 20.8 30.4 1.6
303 1 22.4 28.8 0.0
304 2 24.0 30.4 1.6
305 1 25.6 28.8 0.0
306 3 27.2 30.4 1.6
307 4 28.8 28.8 0.0
308 3 30.4 30.4 1.6
309 4 32.0 28.8 0.0
310 2 33.6 30.4 1.6
311 4 35.2 28.8 0.0
312 4 36.8 30.4 1.6
313 2 38.4 28.8 0.0
314 4 40.0 30.4 1.6
315 4 41.6 28.8 0.0
316 2 43.2 30.4 1.6
317 1 44.8 28.8 0.0
318 2 46.4 30.4 1.6
319 4 48.0 28.8 0.0
320 3 49.6 30.4 1.6
321 4 0.0 32.0 0.0
322 3 1.6 33.6 1.6
323 1 3.2 32.0 0.0
324 3 4.8 33.6 1.6
325 1 6.4 32.0 0.0
326 2 8.0 33.6 1.6
327 1 9.6 32.0 0.0
328 2 11.2 33.6 1.6
329 4 12.8 32.0 0.0
330 3 14.4 33.6 1.6
331 1 16.0 32.0 0.0
332 2 17.6 33.6 1.6
333 1 19.2 32.0 0.0
334 2 20.8 33.6 1.6
335 1 22.4 32.0 0.0
336 2 24.0 33.6 1.6
337 1 25.6 32.0 0.0
338 3 27.2 33.6 1.6
339 1 28.8 32.0 0.0
340 3 30.4 33.6 1.6
341 1 32.0 32.0 0.0
342 2 33.6 33.6 1.6
343 4 35.2 32.0 0.0
344 4 36.8 33.6 1.6
345 2 38.4 32.0 0.0
346 4 40.0 33.6 1.6
347 2 41.6 32.0 0.0
348 3 43.2 33.6 1.6
349 1 44.8 32.0 0.0
350 3 46.4 33.6 1.6
351 1 48.0 32.0 0.0
352 3 49.6 33.6 1.6
353 1 0.0 35.2 0.0
354 3 1.6 36.8 1.6
355 1 3.2 35.2 0.0
356 3 4.8 36.8 1.6
357 4 6.4 35.2 0.0
358 2 8.0 36.8 1.6
359 1 9.6 35.2 0.0
360 4 11.2 36.8 1.6
361 4 12.8 35.2 0.0
362 2 14.4 36.8 1.6
363 1 16.0 35.2 0.0
364 4 17.6 36.8 1.6
365 1 19.2 35.2 0.0
366 4 20.8 36.8 1.6
367 4 22.4 35.2 0.0
368 3 24.0 36.8 1.6
369 1 25.6 35.2 0.0
370 2 27.2 36.8 1.6
371 4 28.8 35.2 0.0
372 1 30.4 36.8 1.6
373 4 32.0 35.2 0.0
374 4 33.6 36.8 1.6
375 4 35.2 35.2 0.0
376 4 36.8 36.8 1.6
377 3 38.4 35.2 0.0
378 4 40.0 36.8 1.6
379 4 41.6 35.2 0.0
380 2 43.2 36.8 1.6
381 4 44.8 35.2 0.0
382 2 46.4 36.8 1.6
383 1 48.0 35.2 0.0
384 3 49.6 36.8 1.6
385 4 0.0 38.4 0.0
386 2 1.6 40.0 1.6
387 1 3.2 38.4 0.0
388 4 4.8 40.0 1.6
389 1 6.4 38.4 0.0
390 2 8.0 40.0 1.6
391 1 9.6 38.4 0.0
392 4 11.2 40.0 1.6
393 4 12.8 38.4 0.0
394 1 14.4 40.0 1.6
395 4 16.0 38.4 0.0
396 2 17.6 40.0 1.6
397 2 19.2 38.4 0.0
398 4 20.8 40.0 1.6
399 4 22.4 38.4 0.0
400 4 24.0 40.0 1.6
401 2 25.6 38.4 0.0
402 1 27.2 40.0 1.6
403 3 28.8 38.4 0.0
404 1 30.4 40.0 1.6
405 3 32.0 38.4 0.0
406 4 33.6 40.0 1.6
407 4 35.2 38.4 0.0
408 4 36.8 40.0 1.6
409 2 38.4 38.4 0.0
410 1 40.0 40.0 1.6
411 4 41.6 38.4 0.0
412 2 43.2 40.0 1.6
413 2 44.8 38.4 0.0
414 4 46.4 40.0 1.6
415 4 48.0 38.4 0.0
416 2 49.6 40.0 1.6
417 4 0.0 41.6 0.0
418 4 1.6 43.2 1.6
419 1 3.2 41.6 0.0
420 4 4.8 43.2 1.6
421 2 6.4 41.6 0.0
422 1 8.0 43.2 1.6
423 4 9.6 41.6 0.0
424 1 11.2 43.2 1.6
425 3 12.8 41.6 0.0
426 4 14.4 43.2 1.6
427 2 16.0 41.6 0.0
428 1 17.6 43.2 1.6
429 4 19.2 41.6 0.0
430 4 20.8 43.2 1.6
431 3 22.4 41.6 0.0
432 1 24.0 43.2 1.6
433 3 25.6 41.6 0.0
434 1 27.2 43.2 1.6
435 3 28.8 41.6 0.0
436 1 30.4 43.2 1.6
437 2 32.0 41.6 0.0
438 4 33.6 43.2 1.6
439 2 35.2 41.6 0.0
440 1 36.8 43.2 1.6
441 3 38.4 41.6 0.0
442 4 40.0 43.2 1.6
443 3 41.6 41.6 0.0
444 4 43.2 43.2 1.6
445 3 44.8 41.6 0.0
446 1 46.4 43.2 1.6
447 2 48.0 41.6 0.0
448 4 49.6 43.2 1.6
449 3 0.0 44.8 0.0
450 4 1.6 46.4 1.6
451 2 3.2 44.8 0.0
452 1 4.8 46.4 1.6
453 3 6.4 44.8 0.0
454 1 8.0 46.4 1.6
455 2 9.6 44.8 0.0
456 1 11.2 46.4 1.6
457 4 12.8 44.8 0.0
458 1 14.4 46.4 1.6
459 3 16.0 44.8 0.0
460 1 17.6 46.4 1.6
461 2 19.2 44.8 0.0
462 4 20.8 46.4 1.6
463 3 22.4 44.8 0.0
464 1 24.0 46.4 1.6
465 3 25.6 44.8 0.0
466 4 27.2 46.4 1.6
467 3 28.8 44.8 0.0
468 1 30.4 46.4 1.6
469 3 32.0 44.8 0.0
470 4 33.6 46.4 1.6
471 3 35.2 44.8 0.0
472 4 36.8 46.4 1.6
473 3 38.4 44.8 0.0
474 4 40.0 46.4 1.6
475 2 41.6 44.8 0.0
476 1 43.2 46.4 1.6
477 3 44.8 44.8 0.0
478 1 46.4 46.4 1.6
479 2 48.0 44.8 0.0
480 4 49.6 46.4 1.6
481 3 0.0 48.0 0.0
482 1 1.6 49.6 1.6
483 3 3.2 48.0 0.0
484 1 4.8 49.6 1.6
485 3 6.4 48.0 0.0
486 1 8.0 49.6 1.6
487 3 9.6 48.0 0.0
488 1 11.2 49.6 1.6
489 3 12.8 48.0 0.0
490 1 14.4 49.6 1.6
491 3 16.0 48.0 0.0
492 1 17.6 49.6 1.6
493 3 19.2 48.0 0.0
494 1 20.8 49.6 1.6
495 3 22.4 48.0 0.0
496 1 24.0 49.6 1.6
497 3 25.6 48.0 0.0
498 1 27.2 49.6 1.6
499 3 28.8 48.0 0.0
500 1 30.4 49.6 1.6
501 3 32.0 48.0 0.0
502 1 33.6 49.6 1.6
503 3 35.2 48.0 0.0
504 1 36.8 49.6 1.6
505 3 38.4 48.0 0.0
506 1 40.0 49.6 1.6
507 3 41.6 48.0 0.0
508 1 43.2 49.6 1.6
509 3 44.8 48.0 0.0
510 1 46.4 49.6 1.6
511 3 48.0 48.0 0.0
512 1 49.6 49.6 1.6
513 2 0.0 0.0 3.2
514 1 1.6 1.6 4.8
515 2 3.2 0.0 3.2
516 4 4.8 1.6 4.8
517 3 6.4 0.0 3.2
518 1 8.0 1.6 4.8
519 3 9.6 0.0 3.2
520 1 11.2 1.6 4.8
521 3 12.8 0.0 3.2
522 1 14.4 1.6 4.8
523 3 16.0 0.0 3.2
524 1 17.6 1.6 4.8
525 2 19.2 0.0 3.2
526 1 20.8 1.6 4.8
527 3 22.4 0.0 3.2
528 4 24.0 1.6 4.8
529 3 25.6 0.0 3.2
530 1 27.2 1.6 4.8
531 2 28.8 0.0 3.2
532 4 30.4 1.6 4.8
533 3 32.0 0.0 3.2
534 1 33.6 1.6 4.8
535 3 35.2 0.0 3.2
536 1 36.8 1.6 4.8
537 2 38.4 0.0 3.2
538 4 40.0 1.6 4.8
539 3 41.6 0.0 3.2
540 1 43.2 1.6 4.8
541 3 44.8 0.0 3.2
542 1 46.4 1.6 4.8
543 2 48.0 0.0 3.2
544 1 49.6 1.6 4.8
545 3 0.0 3.2 3.2
546 4 1.6 4.8 4.8
547 2 3.2 3.2 3.2
548 1 4.8 4.8 4.8
549 2 6.4 3.2 3.2
550 1 8.0 4.8 4.8
551 3 9.6 3.2 3.2
552 1 11.2 4.8 4.8
553 3 12.8 3.2 3.2
554 1 14.4 4.8 4.8
555 3 16.0 3.2 3.2
556 1 17.6 4.8 4.8
557 2 19.2 3.2 3.2
558 1 20.8 4.8 4.8
559 3 22.4 3.2 3.2
560 1 24.0 4.8 4.8
561 3 25.6 3.2 3.2
562 4 27.2 4.8 4.8
563 2 28.8 3.2 3.2
564 1 30.4 4.8 4.8
565 3 32.0 3.2 3.2
566 1 33.6 4.8 4.8
567 3 35.2 3.2 3.2
568 1 36.8 4.8 4.8
569 3 38.4 3.2 3.2
570 1 40.0 4.8 4.8
571 3 41.6 3.2 3.2
572 1 43.2 4.8 4.8
573 3 44.8 3.2 3.2
574 1 46.4 4.8 4.8
575 3 48.0 3.2 3.2
576 1 49.6 4.8 4.8
577 3 0.0 6.4 3.2
578 4 1.6 8.0 4.8
579 3 3.2 6.4 3.2
580 1 4.8 8.0 4.8
581 3 6.4 6.4 3.2
582 1 8.0 8.0 4.8
583 3 9.6 6.4 3.2
584 1 11.2 8.0 4.8
585 3 12.8 6.4 3.2
586 4 14.4 8.0 4.8
587 2 16.0 6.4 3.2
588 1 17.6 8.0 4.8
589 4 19.2 6.4 3.2
590 4 20.8 8.0 4.8
591 3 22.4 6.4 3.2
592 1 24.0 8.0 4.8
593 3 25.6 6.4 3.2
594 1 27.2 8.0 4.8
595 4 28.8 6.4 3.2
596 1 30.4 8.0 4.8
597 2 32.0 6.4 3.2
598 4 33.6 8.0 4.8
599 3 35.2 6.4 3.2
600 4 36.8 8.0 4.8
601 3 38.4 6.4 3.2
602 1 40.0 8.0 4.8
603 3 41.6 6.4 3.2
604 1 43.2 8.0 4.8
605 3 44.8 6.4 3.2
606 1 46.4 8.0 4.8
607 3 48.0 6.4 3.2
608 1 49.6 8.0 4.8
609 2 0.0 9.6 3.2
610 4 1.6 11.2 4.8
611 3 3.2 9.6 3.2
612 1 4.8 11.2 4.8
613 3 6.4 9.6 3.2
614 1 8.0 11.2 4.8
615 3 9.6 9.6 3.2
616 1 11.2 11.2 4.8
617 2 12.8 9.6 3.2
618 1 14.4 11.2 4.8
619 2 16.0 9.6 3.2
620 4 17.6 11.2 4.8
621 2 19.2 9.6 3.2
622 4 20.8 11.2 4.8
623 3 22.4 9.6 3.2
624 1 24.0 11.2 4.8
625 2 25.6 9.6 3.2
626 4 27.2 11.2 4.8
627 2 28.8 9.6 3.2
628 4 30.4 11.2 4.8
629 2 32.0 9.6 3.2
630 4 33.6 11.2 4.8
631 2 35.2 9.6 3.2
632 2 36.8 11.2 4.8
633 2 38.4 9.6 3.2
634 2 40.0 11.2 4.8
635 3 41.6 9.6 3.2
636 4 43.2 11.2 4.8
637 2 44.8 9.6 3.2
638 4 46.4 11.2 4.8
639 2 48.0 9.6 3.2
640 4 49.6 11.2 4.8
641 4 0.0 12.8 3.2
642 2 1.6 14.4 4.8
643 2 3.2 12.8 3.2
644 4 4.8 14.4 4.8
645 3 6.4 12.8 3.2
646 4 8.0 14.4 4.8
647 3 9.6 12.8 3.2
648 4 11.2 14.4 4.8
649 2 12.8 12.8 3.2
650 1 14.4 14.4 4.8
651 3 16.0 12.8 3.2
652 1 17.6 14.4 4.8
653 3 19.2 12.8 3.2
654 1 20.8 14.4 4.8
655 2 22.4 12.8 3.2
656 4 24.0 14.4 4.8
657 3 25.6 12.8 3.2
658 4 27.2 14.4 4.8
659 2 28.8 12.8 3.2
660 2 30.4 14.4 4.8
661 2 32.0 12.8 3.2
662 2 33.6 14.4 4.8
663 2 35.2 12.8 3.2
664 2 36.8 14.4 4.8
665 4 38.4 12.8 3.2
666 2 40.0 14.4 4.8
667 3 41.6 12.8 3.2
668 2 43.2 14.4 4.8
669 4 44.8 12.8 3.2
670 4 46.4 14.4 4.8
671 2 48.0 12.8 3.2
672 2 49.6 14.4 4.8
673 2 0.0 16.0 3.2
674 2 1.6 17.6 4.8
675 2 3.2 16.0 3.2
676 4 4.8 17.6 4.8
677 2 6.4 16.0 3.2
678 2 8.0 17.6 4.8
679 4 9.6 16.0 3.2
680 2 11.2 17.6 4.8
681 4 12.8 16.0 3.2
682 3 14.4 17.6 4.8
683 2 16.0 16.0 3.2
684 1 17.6 17.6 4.8
685 3 19.2 16.0 3.2
686 1 20.8 17.6 4.8
687 2 22.4 16.0 3.2
688 2 24.0 17.6 4.8
689 2 25.6 16.0 3.2
690 4 27.2 17.6 4.8
691 4 28.8 16.0 3.2
692 3 30.4 17.6 4.8
693 2 32.0 16.0 3.2
694 4 33.6 17.6 4.8
695 3 35.2 16.0 3.2
696 3 36.8 17.6 4.8
697 4 38.4 16.0 3.2
698 2 40.0 17.6 4.8
699 2 41.6 16.0 3.2
700 2 43.2 17.6 4.8
701 2 44.8 16.0 3.2
702 2 46.4 17.6 4.8
703 1 48.0 16.0 3.2
704 2 49.6 17.6 4.8
705 1 0.0 19.2 3.2
706 2 1.6 20.8 4.8
707 1 3.2 19.2 3.2
708 2 4.8 20.8 4.8
709 4 6.4 19.2 3.2
710 2 8.0 20.8 4.8
711 1 9.6 19.2 3.2
712 2 11.2 20.8 4.8
713 1 12.8 19.2 3.2
714 4 14.4 20.8 4.8
715 4 16.0 19.2 3.2
716 4 17.6 20.8 4.8
717 2 19.2 19.2 3.2
718 4 20.8 20.8 4.8
719 2 22.4 19.2 3.2
720 1 24.0 20.8 4.8
721 2 25.6 19.2 3.2
722 4 27.2 20.8 4.8
723 4 28.8 19.2 3.2
724 2 30.4 20.8 4.8
725 4 32.0 19.2 3.2
726 3 33.6 20.8 4.8
727 4 35.2 19.2 3.2
728 2 36.8 20.8 4.8
729 4 38.4 19.2 3.2
730 3 40.0 20.8 4.8
731 4 41.6 19.2 3.2
732 3 43.2 20.8 4.8
733 1 44.8 19.2 3.2
734 3 46.4 20.8 4.8
735 4 48.0 19.2 3.2
736 3 49.6 20.8 4.8
737 1 0.0 22.4 3.2
738 2 1.6 24.0 4.8
739 1 3.2 22.4 3.2
740 3 4.8 24.0 4.8
741 4 6.4 22.4 3.2
742 3 8.0 24.0 4.8
743 4 9.6 22.4 3.2
744 2 11.2 24.0 4.8
745 4 12.8 22.4 3.2
746 2 14.4 24.0 4.8
747 4 16.0 22.4 3.2
748 2 17.6 24.0 4.8
749 2 19.2 22.4 3.2
750 1 20.8 24.0 4.8
751 2 22.4 22.4 3.2
752 4 24.0 24.0 4.8
753 2 25.6 22.4 3.2
754 4 27.2 24.0 4.8
755 2 28.8 22.4 3.2
756 2 30.4 24.0 4.8
757 4 32.0 22.4 3.2
758 3 33.6 24.0 4.8
759 4 35.2 22.4 3.2
760 3 36.8 24.0 4.8
761 1 38.4 22.4 3.2
762 3 40.0 24.0 4.8
763 1 41.6 22.4 3.2
764 2 43.2 24.0 4.8
765 4 44.8 22.4 3.2
766 2 46.4 24.0 4.8
767 1 48.0 22.4 3.2
768 3 49.6 24.0 4.8
769 1 0.0 25.6 3.2
770 3 1.6 27.2 4.8
771 1 3.2 25.6 3.2
772 3 4.8 27.2 4.8
773 1 6.4 25.6 3.2
774 3 8.0 27.2 4.8
775 4 9.6 25.6 3.2
776 2 11.2 27.2 4.8
777 4 12.8 25.6 3.2
778 4 14.4 27.2 4.8
779 4 16.0 25.6 3.2
780 2 17.6 27.2 4.8
781 4 19.2 25.6 3.2
782 2 20.8 27.2 4.8
783 2 22.4 25.6 3.2
784 3 24.0 27.2 4.8
785 4 25.6 25.6 3.2
786 3 27.2 27.2 4.8
787 4 28.8 25.6 3.2
788 3 30.4 27.2 4.8
789 1 32.0 25.6 3.2
790 3 33.6 27.2 4.8
791 1 35.2 25.6 3.2
792 4 36.8 27.2 4.8
793 4 38.4 25.6 3.2
794 3 40.0 27.2 4.8
795 1 41.6 25.6 3.2
796 3 43.2 27.2 4.8
797 1 44.8 25.6 3.2
798 3 46.4 27.2 4.8
799 1 48.0 25.6 3.2
800 3 49.6 27.2 4.8
801 1 0.0 28.8 3.2
802 3 1.6 30.4 4.8
803 1 3.2 28.8 3.2
804 3 4.8 30.4 4.8
805 1 6.4 28.8 3.2
806 3 8.0 30.4 4.8
807 1 9.6 28.8 3.2
808 3 11.2 30.4 4.8
809 1 12.8 28.8 3.2
810 3 14.4 30.4 4.8
811 1 16.0 28.8 3.2
812 3 17.6 30.4 4.8
813 4 19.2 28.8 3.2
814 3 20.8 30.4 4.8
815 1 22.4 28.8 3.2
816 3 24.0 30.4 4.8
817 1 25.6 28.8 3.2
818 3 27.2 30.4 4.8
819 1 28.8 28.8 3.2
820 3 30.4 30.4 4.8
821 4 32.0 28.8 3.2
822 3 33.6 30.4 4.8
823 4 35.2 28.8 3.2
824 2 36.8 30.4 4.8
825 2 38.4 28.8 3.2
826 4 40.0 30.4 4.8
827 2 41.6 28.8 3.2
828 2 43.2 30.4 4.8
829 1 44.8 28.8 3.2
830 2 46.4 30.4 4.8
831 1 48.0 28.8 3.2
832 3 49.6 30.4 4.8
833 1 0.0 32.0 3.2
834 3 1.6 33.6 4.8
835 1 3.2 32.0 3.2
836 3 4.8 33.6 4.8
837 1 6.4 32.0 3.2
838 3 8.0 33.6 4.8
839 4 9.6 32.0 3.2
840 2 11.2 33.6 4.8
841 1 12.8 32.0 3.2
842 3 14.4 33.6 4.8
843 4 16.0 32.0 3.2
844 4 17.6 33.6 4.8
845 4 19.2 32.0 3.2
846 2 20.8 33.6 4.8
847 4 22.4 32.0 3.2
848 2 24.0 33.6 4.8
849 1 25.6 32.0 3.2
850 3 27.2 33.6 4.8
851 1 28.8 32.0 3.2
852 3 30.4 33.6 4.8
853 4 32.0 32.0 3.2
854 2 33.6 33.6 4.8
855 4 35.2 32.0 3.2
856 4 36.8 33.6 4.8
857 2 38.4 32.0 3.2
858 4 40.0 33.6 4.8
859 2 41.6 32.0 3.2
860 2 43.2 33.6 4.8
861 1 44.8 32.0 3.2
862 2 46.4 33.6 4.8
863 1 48.0 32.0 3.2
864 3 49.6 33.6 4.8
865 1 0.0 35.2 3.2
866 3 1.6 36.8 4.8
867 1 3.2 35.2 3.2
868 3 4.8 36.8 4.8
869 1 6.4 35.2 3.2
870 3 8.0 36.8 4.8
871 4 9.6 35.2 3.2
872 2 11.2 36.8 4.8
873 1 12.8 35.2 3.2
874 4 14.4 36.8 4.8
875 4 16.0 35.2 3.2
876 2 17.6 36.8 4.8
877 1 19.2 35.2 3.2
878 2 20.8 36.8 4.8
879 4 22.4 35.2 3.2
880 2 24.0 36.8 4.8
881 1 25.6 35.2 3.2
882 4 27.2 36.8 4.8
883 2 28.8 35.2 3.2
884 4 30.4 36.8 4.8
885 4 32.0 35.2 3.2
886 4 33.6 36.8 4.8
887 2 35.2 35.2 3.2
888 4 36.8 36.8 4.8
889 3 38.4 35.2 3.2
890 4 40.0 36.8 4.8
891 4 41.6 35.2 3.2
892 2 43.2 36.8 4.8
893 1 44.8 35.2 3.2
894 2 46.4 36.8 4.8
895 4 48.0 35.2 3.2
896 2 49.6 36.8 4.8
897 4 0.0 38.4 3.2
898 3 1.6 40.0 4.8
899 1 3.2 38.4 3.2
900 3 4.8 40.0 4.8
901 1 6.4 38.4 3.2
902 2 8.0 40.0 4.8
903 4 9.6 38.4 3.2
904 1 11.2 40.0 4.8
905 3 12.8 38.4 3.2
906 1 14.4 40.0 4.8
907 3 16.0 38.4 3.2
908 1 17.6 40.0 4.8
909 2 19.2 38.4 3.2
910 1 20.8 40.0 4.8
911 2 22.4 38.4 3.2
912 1 24.0 40.0 4.8
913 2 25.6 38.4 3.2
914 1 27.2 40.0 4.8
915 2 28.8 38.4 3.2
916 1 30.4 40.0 4.8
917 2 32.0 38.4 3.2
918 4 33.6 40.0 4.8
919 3 35.2 38.4 3.2
920 1 36.8 40.0 4.8
921 3 38.4 38.4 3.2
922 4 40.0 40.0 4.8
923 4 41.6 38.4 3.2
924 4 43.2 40.0 4.8
925 4 44.8 38.4 3.2
926 2 46.4 40.0 4.8
927 4 48.0 38.4 3.2
928 2 49.6 40.0 4.8
929 4 0.0 41.6 3.2
930 2 1.6 43.2 4.8
931 4 3.2 41.6 3.2
932 4 4.8 43.2 4.8
933 3 6.4 41.6 3.2
934 1 8.0 43.2 4.8
935 3 9.6 41.6 3.2
936 1 11.2 43.2 4.8
937 3 12.8 41.6 3.2
938 1 14.4 43.2 4.8
939 2 16.0 41.6 3.2
940 1 17.6 43.2 4.8
941 2 19.2 41.6 3.2
942 1 20.8 43.2 4.8
943 3 22.4 41.6 3.2
944 1 24.0 43.2 4.8
945 3 25.6 41.6 3.2
946 4 27.2 43.2 4.8
947 3 28.8 41.6 3.2
948 1 30.4 43.2 4.8
949 2 32.0 41.6 3.2
950 4 33.6 43.2 4.8
951 2 35.2 41.6 3.2
952 1 36.8 43.2 4.8
953 2 38.4 41.6 3.2
954 1 40.0 43.2 4.8
955 2 41.6 41.6 3.2
956 1 43.2 43.2 4.8
957 2 44.8 41.6 3.2
958 1 46.4 43.2 4.8
959 4 48.0 41.6 3.2
960 2 49.6 43.2 4.8
961 4 0.0 44.8 3.2
962 2 1.6 46.4 4.8
963 2 3.2 44.8 3.2
964 4 4.8 46.4 4.8
965 3 6.4 44.8 3.2
966 4 8.0 46.4 4.8
967 3 9.6 44.8 3.2
968 1 11.2 46.4 4.8
969 3 12.8 44.8 3.2
970 1 14.4 46.4 4.8
971 3 16.0 44.8 3.2
972 1 17.6 46.4 4.8
973 2 19.2 44.8 3.2
974 4 20.8 46.4 4.8
975 2 22.4 44.8 3.2
976 4 24.0 46.4 4.8
977 3 25.6 44.8 3.2
978 4 27.2 46.4 4.8
979 3 28.8 44.8 3.2
980 1 30.4 46.4 4.8
981 3 32.0 44.8 3.2
982 1 33.6 46.4 4.8
983 3 35.2 44.8 3.2
984 1 36.8 46.4 4.8
985 2 38.4 44.8 3.2
986 1 40.0 46.4 4.8
987 3 41.6 44.8 3.2
988 1 43.2 46.4 4.8
989 3 44.8 44.8 3.2
990 1 46.4 46.4 4.8
991 3 48.0 44.8 3.2
992 4 49.6 46.4 4.8
993 2 0.0 48.0 3.2
994 4 1.6 49.6 4.8
995 2 3.2 48.0 3.2
996 1 4.8 49.6 4.8
997 3 6.4 48.0 3.2
998 1 8.0 49.6 4.8
999 3 9.6 48.0 3.2
1000 4 11.2 49.6 4.8
1001 3 12.8 48.0 3.2
1002 1 14.4 49.6 4.8
1003 3 16.0 48.0 3.2
1004 1 17.6 49.6 4.8
1005 3 19.2 48.0 3.2
1006 1 20.8 49.6 4.8
1007 3 22.4 48.0 3.2
1008 1 24.0 49.6 4.8
1009 3 25.6 48.0 3.2
1010 1 27.2 49.6 4.8
1011 3 28.8 48.0 3.2
1012 1 30.4 49.6 4.8
1013 2 32.0 48.0 3.2
1014 1 33.6 49.6 4.8
1015 3 35.2 48.0 3.2
1016 1 36.8 49.6 4.8
1017 3 38.4 48.0 3.2
1018 1 40.0 49.6 4.8
1019 3 41.6 48.0 3.2
1020 1 43.2 49.6 4.8
1021 3 44.8 48.0 3.2
1022 4 46.4 49.6 4.8
1023 2 48.0 48.0 3.2
1024 2 49.6 49.6 4.8
1025 3 0.0 0.0 6.4
1026 4 1.6 1.6 8.0
1027 3 3.2 0.0 6.4
1028 1 4.8 1.6 8.0
1029 3 6.4 0.0 6.4
1030 4 8.0 1.6 8.0
1031 3 9.6 0.0 6.4
1032 4 11.2 1.6 8.0
1033 2 12.8 0.0 6.4
1034 4 14.4 1.6 8.0
1035 3 16.0 0.0 6.4
1036 4 17.6 1.6 8.0
1037 2 19.2 0.0 6.4
1038 4 20.8 1.6 8.0
1039 2 22.4 0.0 6.4
1040 4 24.0 1.6 8.0
1041 3 25.6 0.0 6.4
1042 1 27.2 1.6 8.0
1043 3 28.8 0.0 6.4
1044 1 30.4 1.6 8.0
1045 2 32.0 0.0 6.4
1046 1 33.6 1.6 8.0
1047 3 35.2 0.0 6.4
1048 1 36.8 1.6 8.0
1049 3 38.4 0.0 6.4
1050 1 40.0 1.6 8.0
1051 3 41.6 0.0 6.4
1052 1 43.2 1.6 8.0
1053 3 44.8 0.0 6.4
1054 4 46.4 1.6 8.0
1055 4 48.0 0.0 6.4
1056 4 49.6 1.6 8.0
1057 3 0.0 3.2 6.4
1058 1 1.6 4.8 8.0
1059 3 3.2 3.2 6.4
1060 1 4.8 4.8 8.0
1061 3 6.4 3.2 6.4
1062 1 8.0 4.8 8.0
1063 3 9.6 3.2 6.4
1064 1 11.2 4.8 8.0
1065 3 12.8 3.2 6.4
1066 1 14.4 4.8 8.0
1067 3 16.0 3.2 6.4
1068 1 17.6 4.8 8.0
1069 3 19.2 3.2 6.4
1070 4 20.8 4.8 8.0
1071 3 22.4 3.2 6.4
1072 4 24.0 4.8 8.0
1073 3 25.6 3.2 6.4
1074 4 27.2 4.8 8.0
1075 3 28.8 3.2 6.4
1076 1 30.4 4.8 8.0
1077 3 32.0 3.2 6.4
1078 1 33.6 4.8 8.0
1079 3 35.2 3.2 6.4
1080 4 36.8 4.8 8.0
1081 3 38.4 3.2 6.4
1082 4 40.0 4.8 8.0
1083 3 41.6 3.2 6.4
1084 1 43.2 4.8 8.0
1085 3 44.8 3.2 6.4
1086 1 46.4 4.8 8.0
1087 3 48.0 3.2 6.4
1088 1 49.6 4.8 8.0
1089 3 0.0 6.4 6.4
1090 1 1.6 8.0 8.0
1091 3 3.2 6.4 6.4
1092 1 4.8 8.0 8.0
1093 3 6.4 6.4 6.4
1094 4 8.0 8.0 8.0
1095 3 9.6 6.4 6.4
1096 1 11.2 8.0 8.0
1097 3 12.8 6.4 6.4
1098 4 14.4 8.0 8.0
1099 3 16.0 6.4 6.4
1100 4 17.6 8.0 8.0
1101 3 19.2 6.4 6.4
1102 4 20.8 8.0 8.0
1103 2 22.4 6.4 6.4
1104 4 24.0 8.0 8.0
1105 3 25.6 6.4 6.4
1106 4 27.2 8.0 8.0
1107 3 28.8 6.4 6.4
1108 4 30.4 8.0 8.0
1109 2 32.0 6.4 6.4
1110 2 33.6 8.0 8.0
1111 2 35.2 6.4 6.4
1112 4 36.8 8.0 8.0
1113 2 38.4 6.4 6.4
1114 4 40.0 8.0 8.0
1115 3 41.6 6.4 6.4
1116 4 43.2 8.0 8.0
1117 3 44.8 6.4 6.4
1118 1 46.4 8.0 8.0
1119 3 48.0 6.4 6.4
1120 1 49.6 8.0 8.0
1121 3 0.0 9.6 6.4
1122 4 1.6 11.2 8.0
1123 3 3.2 9.6 6.4
1124 1 4.8 11.2 8.0
1125 3 6.4 9.6 6.4
1126 4 8.0 11.2 8.0
1127 3 9.6 9.6 6.4
1128 1 11.2 11.2 8.0
1129 2 12.8 9.6 6.4
1130 1 14.4 11.2 8.0
1131 2 16.0 9.6 6.4
1132 4 17.6 11.2 8.0
1133 3 19.2 9.6 6.4
1134 1 20.8 11.2 8.0
1135 2 22.4 9.6 6.4
1136 4 24.0 11.2 8.0
1137 2 25.6 9.6 6.4
1138 2 27.2 11.2 8.0
1139 3 28.8 9.6 6.4
1140 2 30.4 11.2 8.0
1141 2 32.0 9.6 6.4
1142 2 33.6 11.2 8.0
1143 4 35.2 9.6 6.4
1144 3 36.8 11.2 8.0
1145 4 38.4 9.6 6.4
1146 2 40.0 11.2 8.0
1147 2 41.6 9.6 6.4
1148 4 43.2 11.2 8.0
1149 3 44.8 9.6 6.4
1150 1 46.4 11.2 8.0
1151 3 48.0 9.6 6.4
1152 4 49.6 11.2 8.0
1153 4 0.0 12.8 6.4
1154 4 1.6 14.4 8.0
1155 2 3.2 12.8 6.4
1156 1 4.8 14.4 8.0
1157 2 6.4 12.8 6.4
1158 4 8.0 14.4 8.0
1159 3 9.6 12.8 6.4
1160 1 11.2 14.4 8.0
1161 3 12.8 12.8 6.4
1162 1 14.4 14.4 8.0
1163 3 16.0 12.8 6.4
1164 1 17.6 14.4 8.0
1165 3 19.2 12.8 6.4
1166 1 20.8 14.4 8.0
1167 2 22.4 12.8 6.4
1168 2 24.0 14.4 8.0
1169 2 25.6 12.8 6.4
1170 2 27.2 14.4 8.0
1171 4 28.8 12.8 6.4
1172 2 30.4 14.4 8.0
1173 4 32.0 12.8 6.4
1174 3 33.6 14.4 8.0
1175 1 35.2 12.8 6.4
1176 3 36.8 14.4 8.0
1177 1 38.4 12.8 6.4
1178 3 40.0 14.4 8.0
1179 1 41.6 12.8 6.4
1180 4 43.2 14.4 8.0
1181 2 44.8 12.8 6.4
1182 4 46.4 14.4 8.0
1183 2 48.0 12.8 6.4
1184 4 49.6 14.4 8.0
1185 4 0.0 16.0 6.4
1186 2 1.6 17.6 8.0
1187 4 3.2 16.0 6.4
1188 2 4.8 17.6 8.0
1189 3 6.4 16.0 6.4
1190 1 8.0 17.6 8.0
1191 2 9.6 16.0 6.4
1192 4 11.2 17.6 8.0
1193 2 12.8 16.0 6.4
1194 4 14.4 17.6 8.0
1195 3 16.0 16.0 6.4
1196 1 17.6 17.6 8.0
1197 3 19.2 16.0 6.4
1198 4 20.8 17.6 8.0
1199 2 22.4 16.0 6.4
1200 4 24.0 17.6 8.0
1201 2 25.6 16.0 6.4
1202 4 27.2 17.6 8.0
1203 2 28.8 16.0 6.4
1204 4 30.4 17.6 8.0
1205 1 32.0 16.0 6.4
1206 2 33.6 17.6 8.0
1207 4 35.2 16.0 6.4
1208 3 36.8 17.6 8.0
1209 1 38.4 16.0 6.4
1210 3 40.0 17.6 8.0
1211 1 41.6 16.0 6.4
1212 2 43.2 17.6 8.0
1213 2 44.8 16.0 6.4
1214 3 46.4 17.6 8.0
1215 4 48.0 16.0 6.4
1216 2 49.6 17.6 8.0
1217 4 0.0 19.2 6.4
1218 3 1.6 20.8 8.0
1219 2 3.2 19.2 6.4
1220 2 4.8 20.8 8.0
1221 4 6.4 19.2 6.4
1222 2 8.0 20.8 8.0
1223 2 9.6 19.2 6.4
1224 4 11.2 20.8 8.0
1225 4 12.8 19.2 6.4
1226 1 14.4 20.8 8.0
1227 3 16.0 19.2 6.4
1228 4 17.6 20.8 8.0
1229 3 19.2 19.2 6.4
1230 4 20.8 20.8 8.0
1231 2 22.4 19.2 6.4
1232 1 24.0 20.8 8.0
1233 3 25.6 19.2 6.4
1234 4 27.2 20.8 8.0
1235 3 28.8 19.2 6.4
1236 2 30.4 20.8 8.0
1237 4 32.0 19.2 6.4
1238 3 33.6 20.8 8.0
1239 4 35.2 19.2 6.4
1240 3 36.8 20.8 8.0
1241 1 38.4 19.2 6.4
1242 3 40.0 20.8 8.0
1243 1 41.6 19.2 6.4
1244 2 43.2 20.8 8.0
1245 1 44.8 19.2 6.4
1246 4 46.4 20.8 8.0
1247 4 48.0 19.2 6.4
1248 3 49.6 20.8 8.0
1249 4 0.0 22.4 6.4
1250 3 1.6 24.0 8.0
1251 4 3.2 22.4 6.4
1252 2 4.8 24.0 8.0
1253 4 6.4 22.4 6.4
1254 2 8.0 24.0 8.0
1255 1 9.6 22.4 6.4
1256 4 11.2 24.0 8.0
1257 2 12.8 22.4 6.4
1258 4 14.4 24.0 8.0
1259 2 16.0 22.4 6.4
1260 4 17.6 24.0 8.0
1261 2 19.2 22.4 6.4
1262 1 20.8 24.0 8.0
1263 2 22.4 22.4 6.4
1264 1 24.0 24.0 8.0
1265 3 25.6 22.4 6.4
1266 4 27.2 24.0 8.0
1267 4 28.8 22.4 6.4
1268 3 30.4 24.0 8.0
1269 1 32.0 22.4 6.4
1270 3 33.6 24.0 8.0
1271 1 35.2 22.4 6.4
1272 2 36.8 24.0 8.0
1273 1 38.4 22.4 6.4
1274 2 40.0 24.0 8.0
1275 1 41.6 22.4 6.4
1276 2 43.2 24.0 8.0
1277 4 44.8 22.4 6.4
1278 3 46.4 24.0 8.0
1279 4 48.0 22.4 6.4
1280 2 49.6 24.0 8.0
1281 1 0.0 25.6 6.4
1282 3 1.6 27.2 8.0
1283 1 3.2 25.6 6.4
1284 3 4.8 27.2 8.0
1285 1 6.4 25.6 6.4
1286 3 8.0 27.2 8.0
1287 1 9.6 25.6 6.4
1288 3 11.2 27.2 8.0
1289 2 12.8 25.6 6.4
1290 2 14.4 27.2 8.0
1291 2 16.0 25.6 6.4
1292 2 17.6 27.2 8.0
1293 2 19.2 25.6 6.4
1294 4 20.8 27.2 8.0
1295 2 22.4 25.6 6.4
1296 2 24.0 27.2 8.0
1297 2 25.6 25.6 6.4
1298 3 27.2 27.2 8.0
1299 4 28.8 25.6 6.4
1300 2 30.4 27.2 8.0
1301 1 32.0 25.6 6.4
1302 3 33.6 27.2 8.0
1303 1 35.2 25.6 6.4
1304 2 36.8 27.2 8.0
1305 4 38.4 25.6 6.4
1306 2 40.0 27.2 8.0
1307 1 41.6 25.6 6.4
1308 2 43.2 27.2 8.0
1309 1 44.8 25.6 6.4
1310 3 46.4 27.2 8.0
1311 1 48.0 25.6 6.4
1312 2 49.6 27.2 8.0
1313 1 0.0 28.8 6.4
1314 3 1.6 30.4 8.0
1315 4 3.2 28.8 6.4
1316 3 4.8 30.4 8.0
1317 1 6.4 28.8 6.4
1318 3 8.0 30.4 8.0
1319 1 9.6 28.8 6.4
1320 3 11.2 30.4 8.0
1321 1 12.8 28.8 6.4
1322 3 14.4 30.4 8.0
1323 1 16.0 28.8 6.4
1324 3 17.6 30.4 8.0
1325 4 19.2 28.8 6.4
1326 2 20.8 30.4 8.0
1327 1 22.4 28.8 6.4
1328 3 24.0 30.4 8.0
1329 1 25.6 28.8 6.4
1330 3 27.2 30.4 8.0
1331 1 28.8 28.8 6.4
1332 3 30.4 30.4 8.0
1333 1 32.0 28.8 6.4
1334 4 33.6 30.4 8.0
1335 4 35.2 28.8 6.4
1336 4 36.8 30.4 8.0
1337 4 38.4 28.8 6.4
1338 2 40.0 30.4 8.0
1339 4 41.6 28.8 6.4
1340 3 43.2 30.4 8.0
1341 4 44.8 28.8 6.4
1342 3 46.4 30.4 8.0
1343 1 48.0 28.8 6.4
1344 3 49.6 30.4 8.0
1345 1 0.0 32.0 6.4
1346 3 1.6 33.6 8.0
1347 1 3.2 32.0 6.4
1348 3 4.8 33.6 8.0
1349 1 6.4 32.0 6.4
1350 2 8.0 33.6 8.0
1351 1 9.6 32.0 6.4
1352 4 11.2 33.6 8.0
1353 1 12.8 32.0 6.4
1354 3 14.4 33.6 8.0
1355 1 16.0 32.0 6.4
1356 3 17.6 33.6 8.0
1357 4 19.2 32.0 6.4
1358 2 20.8 33.6 8.0
1359 4 22.4 32.0 6.4
1360 2 24.0 33.6 8.0
1361 1 25.6 32.0 6.4
1362 2 27.2 33.6 8.0
1363 1 28.8 32.0 6.4
1364 3 30.4 33.6 8.0
1365 1 32.0 32.0 6.4
1366 2 33.6 33.6 8.0
1367 4 35.2 32.0 6.4
1368 1 36.8 33.6 8.0
1369 2 38.4 32.0 6.4
1370 2 40.0 33.6 8.0
1371 4 41.6 32.0 6.4
1372 3 43.2 33.6 8.0
1373 1 44.8 32.0 6.4
1374 3 46.4 33.6 8.0
1375 1 48.0 32.0 6.4
1376 3 49.6 33.6 8.0
1377 1 0.0 35.2 6.4
1378 3 1.6 36.8 8.0
1379 1 3.2 35.2 6.4
1380 3 4.8 36.8 8.0
1381 1 6.4 35.2 6.4
1382 3 8.0 36.8 8.0
1383 4 9.6 35.2 6.4
1384 4 11.2 36.8 8.0
1385 2 12.8 35.2 6.4
1386 4 14.4 36.8 8.0
1387 4 16.0 35.2 6.4
1388 4 17.6 36.8 8.0
1389 4 19.2 35.2 6.4
1390 4 20.8 36.8 8.0
1391 4 22.4 35.2 6.4
1392 2 24.0 36.8 8.0
1393 4 25.6 35.2 6.4
1394 4 27.2 36.8 8.0
1395 2 28.8 35.2 6.4
1396 1 30.4 36.8 8.0
1397 4 32.0 35.2 6.4
1398 1 33.6 36.8 8.0
1399 2 35.2 35.2 6.4
1400 1 36.8 36.8 8.0
1401 2 38.4 35.2 6.4
1402 4 40.0 36.8 8.0
1403 2 41.6 35.2 6.4
1404 3 43.2 36.8 8.0
1405 4 44.8 35.2 6.4
1406 3 46.4 36.8 8.0
1407 1 48.0 35.2 6.4
1408 3 49.6 36.8 8.0
1409 1 0.0 38.4 6.4
1410 3 1.6 40.0 8.0
1411 1 3.2 38.4 6.4
1412 2 4.8 40.0 8.0
1413 4 6.4 38.4 6.4
1414 4 8.0 40.0 8.0
1415 3 9.6 38.4 6.4
1416 4 11.2 40.0 8.0
1417 3 12.8 38.4 6.4
1418 4 14.4 40.0 8.0
1419 4 16.0 38.4 6.4
1420 4 17.6 40.0 8.0
1421 2 19.2 38.4 6.4
1422 1 20.8 40.0 8.0
1423 2 22.4 38.4 6.4
1424 1 24.0 40.0 8.0
1425 4 25.6 38.4 6.4
1426 4 27.2 40.0 8.0
1427 2 28.8 38.4 6.4
1428 1 30.4 40.0 8.0
1429 3 32.0 38.4 6.4
1430 4 33.6 40.0 8.0
1431 2 35.2 38.4 6.4
1432 1 36.8 40.0 8.0
1433 2 38.4 38.4 6.4
1434 2 40.0 40.0 8.0
1435 2 41.6 38.4 6.4
1436 2 43.2 40.0 8.0
1437 4 44.8 38.4 6.4
1438 3 46.4 40.0 8.0
1439 1 48.0 38.4 6.4
1440 2 49.6 40.0 8.0
1441 1 0.0 41.6 6.4
1442 2 1.6 43.2 8.0
1443 4 3.2 41.6 6.4
1444 4 4.8 43.2 8.0
1445 2 6.4 41.6 6.4
1446 4 8.0 43.2 8.0
1447 3 9.6 41.6 6.4
1448 1 11.2 43.2 8.0
1449 3 12.8 41.6 6.4
1450 1 14.4 43.2 8.0
1451 3 16.0 41.6 6.4
1452 1 17.6 43.2 8.0
1453 2 19.2 41.6 6.4
1454 4 20.8 43.2 8.0
1455 3 22.4 41.6 6.4
1456 4 24.0 43.2 8.0
1457 3 25.6 41.6 6.4
1458 4 27.2 43.2 8.0
1459 3 28.8 41.6 6.4
1460 1 30.4 43.2 8.0
1461 3 32.0 41.6 6.4
1462 4 33.6 43.2 8.0
1463 2 35.2 41.6 6.4
1464 2 36.8 43.2 8.0
1465 3 38.4 41.6 6.4
1466 4 40.0 43.2 8.0
1467 2 41.6 41.6 6.4
1468 2 43.2 43.2 8.0
1469 4 44.8 41.6 6.4
1470 3 46.4 43.2 8.0
1471 4 48.0 41.6 6.4
1472 4 49.6 43.2 8.0
1473 4 0.0 44.8 6.4
1474 4 1.6 46.4 8.0
1475 4 3.2 44.8 6.4
1476 4 4.8 46.4 8.0
1477 2 6.4 44.8 6.4
1478 4 8.0 46.4 8.0
1479 3 9.6 44.8 6.4
1480 1 11.2 46.4 8.0
1481 3 12.8 44.8 6.4
1482 1 14.4 46.4 8.0
1483 3 16.0 44.8 6.4
1484 1 17.6 46.4 8.0
1485 3 19.2 44.8 6.4
1486 1 20.8 46.4 8.0
1487 3 22.4 44.8 6.4
1488 4 24.0 46.4 8.0
1489 2 25.6 44.8 6.4
1490 1 27.2 46.4 8.0
1491 2 28.8 44.8 6.4
1492 1 30.4 46.4 8.0
1493 3 32.0 44.8 6.4
1494 4 33.6 46.4 8.0
1495 4 35.2 44.8 6.4
1496 4 36.8 46.4 8.0
1497 3 38.4 44.8 6.4
1498 4 40.0 46.4 8.0
1499 2 41.6 44.8 6.4
1500 4 43.2 46.4 8.0