 # Bcc Mo oriented X=[100] Y=[010] Z=[001].
  
        8192  atoms
           4  atom types
 
      0.000000000000      51.200000000000  xlo xhi
      0.000000000000      51.200000000000  ylo yhi
      0.000000000000      51.200000000000  zlo zhi
 
 
 
Atoms # atomic

1 2 0.0 0.0 0.0
2 2 1.6 1.6 1.6
3 2 3.2 0.0 0.0
4 4 4.8 1.6 1.6
5 3 6.4 0.0 0.0
6 1 8.0 1.6 1.6
7 2 9.6 0.0 0.0
8 4 11.2 1.6 1.6
9 3 12.8 0.0 0.0
10 3 14.4 1.6 1.6
11 2 16.0 0.0 0.0
12 4 17.6 1.6 1.6
13 4 19.2 0.0 0.0
14 1 20.8 1.6 1.6
15 2 22.4 0.0 0.0
16 1 24.0 1.6 1.6
17 3 25.6 0.0 0.0
18 1 27.2 1.6 1.6
19 2 28.8 0.0 0.0
20 1 30.4 1.6 1.6
21 3 32.0 0.0 0.0
22 4 33.6 1.6 1.6
23 2 35.2 0.0 0.0
24 2 36.8 1.6 1.6
25 4 38.4 0.0 0.0
26 4 40.0 1.6 1.6
27 3 41.6 0.0 0.0
28 4 43.2 1.6 1.6
29 3 44.8 0.0 0.0
30 1 46.4 1.6 1.6
31 4 48.0 0.0 0.0
32 3 49.6 1.6 1.6
33 2 0.0 3.2 0.0
34 4 1.6 4.8 1.6
35 2 3.2 3.2 0.0
36 1 4.8 4.8 1.6
37 3 6.4 3.2 0.0
38 4 8.0 4.8 1.6
39 3 9.6 3.2 0.0
40 4 11.2 4.8 1.6
41 3 12.8 3.2 0.0
42 1 14.4 4.8 1.6
43 2 16.0 3.2 0.0
44 1 17.6 4.8 1.6
45 3 19.2 3.2 0.0
46 4 20.8 4.8 1.6
47 2 22.4 3.2 0.0
48 1 24.0 4.8 1.6
49 3 25.6 3.2 0.0
50 1 27.2 4.8 1.6
51 3 28.8 3.2 0.0
52 1 30.4 4.8 1.6
53 3 32.0 3.2 0.0
54 1 33.6 4.8 1.6
55 2 35.2 3.2 0.0
56 2 36.8 4.8 1.6
57 2 38.4 3.2 0.0
58 4 40.0 4.8 1.6
59 3 41.6 3.2 0.0
60 1 43.2 4.8 1.6
61 2 44.8 3.2 0.0
62 1 46.4 4.8 1.6
63 1 48.0 3.2 0.0
64 2 49.6 4.8 1.6
65 3 0.0 6.4 0.0
66 1 1.6 8.0 1.6
67 2 3.2 6.4 0.0
68 1 4.8 8.0 1.6
69 3 6.4 6.4 0.0
70 1 8.0 8.0 1.6
71 2 9.6 6.4 0.0
72 4 11.2 8.0 1.6
73 2 12.8 6.4 0.0
74 1 14.4 8.0 1.6
75 2 16.0 6.4 0.0
76 1 17.6 8.0 1.6
77 3 19.2 6.4 0.0
78 1 20.8 8.0 1.6
79 3 22.4 6.4 0.0
80 1 24.0 8.0 1.6
81 3 25.6 6.4 0.0
82 1 27.2 8.0 1.6
83 3 28.8 6.4 0.0
84 1 30.4 8.0 1.6
85 3 32.0 6.4 0.0
86 4 33.6 8.0 1.6
87 2 35.2 6.4 0.0
88 3 36.8 8.0 1.6
89 2 38.4 6.4 0.0
90 1 40.0 8.0 1.6
91 3 41.6 6.4 0.0
92 1 43.2 8.0 1.6
93 3 44.8 6.4 0.0
94 4 46.4 8.0 1.6
95 2 48.0 6.4 0.0
96 1 49.6 8.0 1.6
97 3 0.0 9.6 0.0
98 1 1.6 11.2 1.6
99 4 3.2 9.6 0.0
100 1 4.8 11.2 1.6
101 3 6.4 9.6 0.0
102 1 8.0 11.2 1.6
103 3 9.6 9.6 0.0
104 1 11.2 11.2 1.6
105 2 12.8 9.6 0.0
106 4 14.4 11.2 1.6
107 2 16.0 9.6 0.0
108 4 17.6 11.2 1.6
109 3 19.2 9.6 0.0
110 2 20.8 11.2 1.6
111 2 22.4 9.6 0.0
112 3 24.0 11.2 1.6
113 3 25.6 9.6 0.0
114 1 27.2 11.2 1.6
115 3 28.8 9.6 0.0
116 4 30.4 11.2 1.6
117 3 32.0 9.6 0.0
118 4 33.6 11.2 1.6
119 4 35.2 9.6 0.0
120 4 36.8 11.2 1.6
121 3 38.4 9.6 0.0
122 4 40.0 11.2 1.6
123 4 41.6 9.6 0.0
124 1 43.2 11.2 1.6
125 4 44.8 9.6 0.0
126 2 46.4 11.2 1.6
127 3 48.0 9.6 0.0
128 1 49.6 11.2 1.6
129 2 0.0 12.8 0.0
130 4 1.6 14.4 1.6
131 2 3.2 12.8 0.0
132 2 4.8 14.4 1.6
133 4 6.4 12.8 0.0
134 2 8.0 14.4 1.6
135 3 9.6 12.8 0.0
136 3 11.2 14.4 1.6
137 2 12.8 12.8 0.0
138 2 14.4 14.4 1.6
139 4 16.0 12.8 0.0
140 3 17.6 14.4 1.6
141 4 19.2 12.8 0.0
142 2 20.8 14.4 1.6
143 1 22.4 12.8 0.0
144 4 24.0 14.4 1.6
145 2 25.6 12.8 0.0
146 1 27.2 14.4 1.6
147 2 28.8 12.8 0.0
148 2 30.4 14.4 1.6
149 2 32.0 12.8 0.0
150 3 33.6 14.4 1.6
151 2 35.2 12.8 0.0
152 1 36.8 14.4 1.6
153 3 38.4 12.8 0.0
154 4 40.0 14.4 1.6
155 4 41.6 12.8 0.0
156 2 43.2 14.4 1.6
157 4 44.8 12.8 0.0
158 4 46.4 14.4 1.6
159 4 48.0 12.8 0.0
160 1 49.6 14.4 1.6
161 2 0.0 16.0 0.0
162 2 1.6 17.6 1.6
163 1 3.2 16.0 0.0
164 3 4.8 17.6 1.6
165 1 6.4 16.0 0.0
166 2 8.0 17.6 1.6
167 1 9.6 16.0 0.0
168 3 11.2 17.6 1.6
169 1 12.8 16.0 0.0
170 3 14.4 17.6 1.6
171 1 16.0 16.0 0.0
172 3 17.6 17.6 1.6
173 4 19.2 16.0 0.0
174 4 20.8 17.6 1.6
175 1 22.4 16.0 0.0
176 4 24.0 17.6 1.6
177 4 25.6 16.0 0.0
178 1 27.2 17.6 1.6
179 2 28.8 16.0 0.0
180 4 30.4 17.6 1.6
181 2 32.0 16.0 0.0
182 2 33.6 17.6 1.6
183 4 35.2 16.0 0.0
184 1 36.8 17.6 1.6
185 3 38.4 16.0 0.0
186 2 40.0 17.6 1.6
187 1 41.6 16.0 0.0
188 2 43.2 17.6 1.6
189 1 44.8 16.0 0.0
190 3 46.4 17.6 1.6
191 2 48.0 16.0 0.0
192 3 49.6 17.6 1.6
193 1 0.0 19.2 0.0
194 3 1.6 20.8 1.6
195 1 3.2 19.2 0.0
196 2 4.8 20.8 1.6
197 4 6.4 19.2 0.0
198 4 8.0 20.8 1.6
199 1 9.6 19.2 0.0
200 4 11.2 20.8 1.6
201 1 12.8 19.2 0.0
202 2 14.4 20.8 1.6
203 4 16.0 19.2 0.0
204 4 17.6 20.8 1.6
205 2 19.2 19.2 0.0
206 4 20.8 20.8 1.6
207 2 22.4 19.2 0.0
208 1 24.0 20.8 1.6
209 2 25.6 19.2 0.0
210 4 27.2 20.8 1.6
211 2 28.8 19.2 0.0
212 4 30.4 20.8 1.6
213 4 32.0 19.2 0.0
214 4 33.6 20.8 1.6
215 3 35.2 19.2 0.0
216 2 36.8 20.8 1.6
217 4 38.4 19.2 0.0
218 3 40.0 20.8 1.6
219 1 41.6 19.2 0.0
220 3 43.2 20.8 1.6
221 4 44.8 19.2 0.0
222 3 46.4 20.8 1.6
223 1 48.0 19.2 0.0
224 3 49.6 20.8 1.6
225 4 0.0 22.4 0.0
226 3 1.6 24.0 1.6
227 1 3.2 22.4 0.0
228 2 4.8 24.0 1.6
229 2 6.4 22.4 0.0
230 4 8.0 24.0 1.6
231 2 9.6 22.4 0.0
232 2 11.2 24.0 1.6
233 2 12.8 22.4 0.0
234 2 14.4 24.0 1.6
235 4 16.0 22.4 0.0
236 3 17.6 24.0 1.6
237 1 19.2 22.4 0.0
238 3 20.8 24.0 1.6
239 4 22.4 22.4 0.0
240 1 24.0 24.0 1.6
241 2 25.6 22.4 0.0
242 4 27.2 24.0 1.6
243 4 28.8 22.4 0.0
244 2 30.4 24.0 1.6
245 3 32.0 22.4 0.0
246 4 33.6 24.0 1.6
247 3 35.2 22.4 0.0
248 3 36.8 24.0 1.6
249 1 38.4 22.4 0.0
250 2 40.0 24.0 1.6
251 4 41.6 22.4 0.0
252 4 43.2 24.0 1.6
253 4 44.8 22.4 0.0
254 2 46.4 24.0 1.6
255 1 48.0 22.4 0.0
256 3 49.6 24.0 1.6
257 1 0.0 25.6 0.0
258 3 1.6 27.2 1.6
259 1 3.2 25.6 0.0
260 3 4.8 27.2 1.6
261 1 6.4 25.6 0.0
262 2 8.0 27.2 1.6
263 1 9.6 25.6 0.0
264 3 11.2 27.2 1.6
265 4 12.8 25.6 0.0
266 3 14.4 27.2 1.6
267 1 16.0 25.6 0.0
268 2 17.6 27.2 1.6
269 1 19.2 25.6 0.0
270 2 20.8 27.2 1.6
271 3 22.4 25.6 0.0
272 2 24.0 27.2 1.6
273 2 25.6 25.6 0.0
274 3 27.2 27.2 1.6
275 2 28.8 25.6 0.0
276 1 30.4 27.2 1.6
277 2 32.0 25.6 0.0
278 1 33.6 27.2 1.6
279 2 35.2 25.6 0.0
280 1 36.8 27.2 1.6
281 4 38.4 25.6 0.0
282 4 40.0 27.2 1.6
283 1 41.6 25.6 0.0
284 4 43.2 27.2 1.6
285 1 44.8 25.6 0.0
286 3 46.4 27.2 1.6
287 1 48.0 25.6 0.0
288 3 49.6 27.2 1.6
289 1 0.0 28.8 0.0
290 2 1.6 30.4 1.6
291 1 3.2 28.8 0.0
292 2 4.8 30.4 1.6
293 4 6.4 28.8 0.0
294 2 8.0 30.4 1.6
295 2 9.6 28.8 0.0
296 3 11.2 30.4 1.6
297 1 12.8 28.8 0.0
298 2 14.4 30.4 1.6
299 1 16.0 28.8 0.0
300 2 17.6 30.4 1.6
301 1 19.2 28.8 0.0
302 2 20.8 30.4 1.6
303 1 22.4 28.8 0.0
304 2 24.0 30.4 1.6
305 4 25.6 28.8 0.0
306 3 27.2 30.4 1.6
307 4 28.8 28.8 0.0
308 2 30.4 30.4 1.6
309 4 32.0 28.8 0.0
310 4 33.6 30.4 1.6
311 2 35.2 28.8 0.0
312 1 36.8 30.4 1.6
313 2 38.4 28.8 0.0
314 1 40.0 30.4 1.6
315 3 41.6 28.8 0.0
316 1 43.2 30.4 1.6
317 3 44.8 28.8 0.0
318 4 46.4 30.4 1.6
319 4 48.0 28.8 0.0
320 3 49.6 30.4 1.6
321 1 0.0 32.0 0.0
322 3 1.6 33.6 1.6
323 1 3.2 32.0 0.0
324 3 4.8 33.6 1.6
325 1 6.4 32.0 0.0
326 2 8.0 33.6 1.6
327 1 9.6 32.0 0.0
328 3 11.2 33.6 1.6
329 1 12.8 32.0 0.0
330 4 14.4 33.6 1.6
331 1 16.0 32.0 0.0
332 4 17.6 33.6 1.6
333 1 19.2 32.0 0.0
334 4 20.8 33.6 1.6
335 1 22.4 32.0 0.0
336 3 24.0 33.6 1.6
337 3 25.6 32.0 0.0
338 3 27.2 33.6 1.6
339 4 28.8 32.0 0.0
340 3 30.4 33.6 1.6
341 4 32.0 32.0 0.0
342 4 33.6 33.6 1.6
343 3 35.2 32.0 0.0
344 1 36.8 33.6 1.6
345 4 38.4 32.0 0.0
346 1 40.0 33.6 1.6
347 2 41.6 32.0 0.0
348 1 43.2 33.6 1.6
349 3 44.8 32.0 0.0
350 3 46.4 33.6 1.6
351 4 48.0 32.0 0.0
352 3 49.6 33.6 1.6
353 1 0.0 35.2 0.0
354 2 1.6 36.8 1.6
355 4 3.2 35.2 0.0
356 4 4.8 36.8 1.6
357 1 6.4 35.2 0.0
358 2 8.0 36.8 1.6
359 1 9.6 35.2 0.0
360 4 11.2 36.8 1.6
361 4 12.8 35.2 0.0
362 1 14.4 36.8 1.6
363 4 16.0 35.2 0.0
364 3 17.6 36.8 1.6
365 4 19.2 35.2 0.0
366 1 20.8 36.8 1.6
367 3 22.4 35.2 0.0
368 4 24.0 36.8 1.6
369 3 25.6 35.2 0.0
370 4 27.2 36.8 1.6
371 4 28.8 35.2 0.0
372 3 30.4 36.8 1.6
373 1 32.0 35.2 0.0
374 1 33.6 36.8 1.6
375 4 35.2 35.2 0.0
376 1 36.8 36.8 1.6
377 3 38.4 35.2 0.0
378 1 40.0 36.8 1.6
379 2 41.6 35.2 0.0
380 4 43.2 36.8 1.6
381 2 44.8 35.2 0.0
382 3 46.4 36.8 1.6
383 2 48.0 35.2 0.0
384 2 49.6 36.8 1.6
385 1 0.0 38.4 0.0
386 2 1.6 40.0 1.6
387 2 3.2 38.4 0.0
388 4 4.8 40.0 1.6
389 4 6.4 38.4 0.0
390 1 8.0 40.0 1.6
391 2 9.6 38.4 0.0
392 4 11.2 40.0 1.6
393 4 12.8 38.4 0.0
394 3 14.4 40.0 1.6
395 4 16.0 38.4 0.0
396 2 17.6 40.0 1.6
397 2 19.2 38.4 0.0
398 4 20.8 40.0 1.6
399 3 22.4 38.4 0.0
400 3 24.0 40.0 1.6
401 4 25.6 38.4 0.0
402 2 27.2 40.0 1.6
403 3 28.8 38.4 0.0
404 1 30.4 40.0 1.6
405 3 32.0 38.4 0.0
406 1 33.6 40.0 1.6
407 3 35.2 38.4 0.0
408 2 36.8 40.0 1.6
409 3 38.4 38.4 0.0
410 1 40.0 40.0 1.6
411 3 41.6 38.4 0.0
412 4 43.2 40.0 1.6
413 3 44.8 38.4 0.0
414 4 46.4 40.0 1.6
415 4 48.0 38.4 0.0
416 3 49.6 40.0 1.6
417 1 0.0 41.6 0.0
418 3 1.6 43.2 1.6
419 1 3.2 41.6 0.0
420 3 4.8 43.2 1.6
421 4 6.4 41.6 0.0
422 4 8.0 43.2 1.6
423 3 9.6 41.6 0.0
424 4 11.2 43.2 1.6
425 4 12.8 41.6 0.0
426 3 14.4 43.2 1.6
427 1 16.0 41.6 0.0
428 2 17.6 43.2 1.6
429 4 19.2 41.6 0.0
430 2 20.8 43.2 1.6
431 1 22.4 41.6 0.0
432 2 24.0 43.2 1.6
433 1 25.6 41.6 0.0
434 4 27.2 43.2 1.6
435 4 28.8 41.6 0.0
436 4 30.4 43.2 1.6
437 4 32.0 41.6 0.0
438 1 33.6 43.2 1.6
439 3 35.2 41.6 0.0
440 2 36.8 43.2 1.6
441 4 38.4 41.6 0.0
442 1 40.0 43.2 1.6
443 3 41.6 41.6 0.0
444 1 43.2 43.2 1.6
445 2 44.8 41.6 0.0
446 2 46.4 43.2 1.6
447 1 48.0 41.6 0.0
448 2 49.6 43.2 1.6
449 4 0.0 44.8 0.0
450 3 1.6 46.4 1.6
451 1 3.2 44.8 0.0
452 2 4.8 46.4 1.6
453 4 6.4 44.8 0.0
454 2 8.0 46.4 1.6
455 2 9.6 44.8 0.0
456 4 11.2 46.4 1.6
457 4 12.8 44.8 0.0
458 4 14.4 46.4 1.6
459 2 16.0 44.8 0.0
460 2 17.6 46.4 1.6
461 4 19.2 44.8 0.0
462 1 20.8 46.4 1.6
463 2 22.4 44.8 0.0
464 4 24.0 46.4 1.6
465 4 25.6 44.8 0.0
466 4 27.2 46.4 1.6
467 4 28.8 44.8 0.0
468 4 30.4 46.4 1.6
469 2 32.0 44.8 0.0
470 1 33.6 46.4 1.6
471 3 35.2 44.8 0.0
472 2 36.8 46.4 1.6
473 2 38.4 44.8 0.0
474 1 40.0 46.4 1.6
475 3 41.6 44.8 0.0
476 1 43.2 46.4 1.6
477 3 44.8 44.8 0.0
478 2 46.4 46.4 1.6
479 1 48.0 44.8 0.0
480 3 49.6 46.4 1.6
481 3 0.0 48.0 0.0
482 1 1.6 49.6 1.6
483 3 3.2 48.0 0.0
484 4 4.8 49.6 1.6
485 4 6.4 48.0 0.0
486 4 8.0 49.6 1.6
487 3 9.6 48.0 0.0
488 1 11.2 49.6 1.6
489 3 12.8 48.0 0.0
490 1 14.4 49.6 1.6
491 4 16.0 48.0 0.0
492 2 17.6 49.6 1.6
493 2 19.2 48.0 0.0
494 4 20.8 49.6 1.6
495 3 22.4 48.0 0.0
496 1 24.0 49.6 1.6
497 3 25.6 48.0 0.0
498 1 27.2 49.6 1.6
499 4 28.8 48.0 0.0
500 4 30.4 49.6 1.6
501 2 32.0 48.0 0.0
502 4 33.6 49.6 1.6
503 3 35.2 48.0 0.0
504 2 36.8 49.6 1.6
505 4 38.4 48.0 0.0
506 2 40.0 49.6 1.6
507 2 41.6 48.0 0.0
508 4 43.2 49.6 1.6
509 2 44.8 48.0 0.0
510 4 46.4 49.6 1.6
511 2 48.0 48.0 0.0
512 1 49.6 49.6 1.6
513 3 0.0 0.0 3.2
514 2 1.6 1.6 4.8
515 3 3.2 0.0 3.2
516 4 4.8 1.6 4.8
517 2 6.4 0.0 3.2
518 1 8.0 1.6 4.8
519 3 9.6 0.0 3.2
520 1 11.2 1.6 4.8
521 3 12.8 0.0 3.2
522 4 14.4 1.6 4.8
523 3 16.0 0.0 3.2
524 1 17.6 1.6 4.8
525 3 19.2 0.0 3.2
526 1 20.8 1.6 4.8
527 2 22.4 0.0 3.2
528 1 24.0 1.6 4.8
529 3 25.6 0.0 3.2
530 4 27.2 1.6 4.8
531 2 28.8 0.0 3.2
532 2 30.4 1.6 4.8
533 3 32.0 0.0 3.2
534 1 33.6 1.6 4.8
535 2 35.2 0.0 3.2
536 4 36.8 1.6 4.8
537 1 38.4 0.0 3.2
538 4 40.0 1.6 4.8
539 3 41.6 0.0 3.2
540 1 43.2 1.6 4.8
541 3 44.8 0.0 3.2
542 4 46.4 1.6 4.8
543 2 48.0 0.0 3.2
544 2 49.6 1.6 4.8
545 2 0.0 3.2 3.2
546 1 1.6 4.8 4.8
547 2 3.2 3.2 3.2
548 1 4.8 4.8 4.8
549 3 6.4 3.2 3.2
550 4 8.0 4.8 4.8
551 3 9.6 3.2 3.2
552 4 11.2 4.8 4.8
553 4 12.8 3.2 3.2
554 1 14.4 4.8 4.8
555 3 16.0 3.2 3.2
556 1 17.6 4.8 4.8
557 3 19.2 3.2 3.2
558 1 20.8 4.8 4.8
559 3 22.4 3.2 3.2
560 1 24.0 4.8 4.8
561 3 25.6 3.2 3.2
562 1 27.2 4.8 4.8
563 3 28.8 3.2 3.2
564 1 30.4 4.8 4.8
565 3 32.0 3.2 3.2
566 2 33.6 4.8 4.8
567 4 35.2 3.2 3.2
568 2 36.8 4.8 4.8
569 4 38.4 3.2 3.2
570 1 40.0 4.8 4.8
571 3 41.6 3.2 3.2
572 1 43.2 4.8 4.8
573 3 44.8 3.2 3.2
574 2 46.4 4.8 4.8
575 4 48.0 3.2 3.2
576 4 49.6 4.8 4.8
577 3 0.0 6.4 3.2
578 1 1.6 8.0 4.8
579 2 3.2 6.4 3.2
580 1 4.8 8.0 4.8
581 3 6.4 6.4 3.2
582 1 8.0 8.0 4.8
583 3 9.6 6.4 3.2
584 1 11.2 8.0 4.8
585 2 12.8 6.4 3.2
586 2 14.4 8.0 4.8
587 3 16.0 6.4 3.2
588 1 17.6 8.0 4.8
589 3 19.2 6.4 3.2
590 1 20.8 8.0 4.8
591 2 22.4 6.4 3.2
592 4 24.0 8.0 4.8
593 3 25.6 6.4 3.2
594 2 27.2 8.0 4.8
595 2 28.8 6.4 3.2
596 1 30.4 8.0 4.8
597 3 32.0 6.4 3.2
598 2 33.6 8.0 4.8
599 1 35.2 6.4 3.2
600 2 36.8 8.0 4.8
601 1 38.4 6.4 3.2
602 2 40.0 8.0 4.8
603 2 41.6 6.4 3.2
604 2 43.2 8.0 4.8
605 3 44.8 6.4 3.2
606 2 46.4 8.0 4.8
607 2 48.0 6.4 3.2
608 1 49.6 8.0 4.8
609 3 0.0 9.6 3.2
610 1 1.6 11.2 4.8
611 2 3.2 9.6 3.2
612 1 4.8 11.2 4.8
613 3 6.4 9.6 3.2
614 1 8.0 11.2 4.8
615 3 9.6 9.6 3.2
616 1 11.2 11.2 4.8
617 3 12.8 9.6 3.2
618 2 14.4 11.2 4.8
619 2 16.0 9.6 3.2
620 4 17.6 11.2 4.8
621 3 19.2 9.6 3.2
622 2 20.8 11.2 4.8
623 2 22.4 9.6 3.2
624 2 24.0 11.2 4.8
625 2 25.6 9.6 3.2
626 4 27.2 11.2 4.8
627 4 28.8 9.6 3.2
628 2 30.4 11.2 4.8
629 3 32.0 9.6 3.2
630 3 33.6 11.2 4.8
631 1 35.2 9.6 3.2
632 2 36.8 11.2 4.8
633 2 38.4 9.6 3.2
634 2 40.0 11.2 4.8
635 2 41.6 9.6 3.2
636 3 43.2 11.2 4.8
637 1 44.8 9.6 3.2
638 3 46.4 11.2 4.8
639 2 48.0 9.6 3.2
640 1 49.6 11.2 4.8
641 3 0.0 12.8 3.2
642 4 1.6 14.4 4.8
643 3 3.2 12.8 3.2
644 4 4.8 14.4 4.8
645 4 6.4 12.8 3.2
646 1 8.0 14.4 4.8
647 3 9.6 12.8 3.2
648 1 11.2 14.4 4.8
649 2 12.8 12.8 3.2
650 4 14.4 14.4 4.8
651 3 16.0 12.8 3.2
652 3 17.6 14.4 4.8
653 1 19.2 12.8 3.2
654 4 20.8 14.4 4.8
655 1 22.4 12.8 3.2
656 4 24.0 14.4 4.8
657 3 25.6 12.8 3.2
658 1 27.2 14.4 4.8
659 3 28.8 12.8 3.2
660 4 30.4 14.4 4.8
661 2 32.0 12.8 3.2
662 2 33.6 14.4 4.8
663 2 35.2 12.8 3.2
664 4 36.8 14.4 4.8
665 3 38.4 12.8 3.2
666 3 40.0 14.4 4.8
667 4 41.6 12.8 3.2
668 4 43.2 14.4 4.8
669 4 44.8 12.8 3.2
670 3 46.4 14.4 4.8
671 3 48.0 12.8 3.2
672 1 49.6 14.4 4.8
673 2 0.0 16.0 3.2
674 2 1.6 17.6 4.8
675 4 3.2 16.0 3.2
676 3 4.8 17.6 4.8
677 4 6.4 16.0 3.2
678 4 8.0 17.6 4.8
679 4 9.6 16.0 3.2
680 4 11.2 17.6 4.8
681 4 12.8 16.0 3.2
682 2 14.4 17.6 4.8
683 1 16.0 16.0 3.2
684 2 17.6 17.6 4.8
685 4 19.2 16.0 3.2
686 4 20.8 17.6 4.8
687 2 22.4 16.0 3.2
688 4 24.0 17.6 4.8
689 2 25.6 16.0 3.2
690 1 27.2 17.6 4.8
691 3 28.8 16.0 3.2
692 4 30.4 17.6 4.8
693 4 32.0 16.0 3.2
694 1 33.6 17.6 4.8
695 4 35.2 16.0 3.2
696 4 36.8 17.6 4.8
697 4 38.4 16.0 3.2
698 2 40.0 17.6 4.8
699 4 41.6 16.0 3.2
700 2 43.2 17.6 4.8
701 3 44.8 16.0 3.2
702 4 46.4 17.6 4.8
703 4 48.0 16.0 3.2
704 2 49.6 17.6 4.8
705 4 0.0 19.2 3.2
706 2 1.6 20.8 4.8
707 4 3.2 19.2 3.2
708 4 4.8 20.8 4.8
709 4 6.4 19.2 3.2
710 1 8.0 20.8 4.8
711 2 9.6 19.2 3.2
712 4 11.2 20.8 4.8
713 1 12.8 19.2 3.2
714 2 14.4 20.8 4.8
715 1 16.0 19.2 3.2
716 3 17.6 20.8 4.8
717 1 19.2 19.2 3.2
718 2 20.8 20.8 4.8
719 3 22.4 19.2 3.2
720 1 24.0 20.8 4.8
721 2 25.6 19.2 3.2
722 4 27.2 20.8 4.8
723 3 28.8 19.2 3.2
724 4 30.4 20.8 4.8
725 3 32.0 19.2 3.2
726 4 33.6 20.8 4.8
727 2 35.2 19.2 3.2
728 2 36.8 20.8 4.8
729 4 38.4 19.2 3.2
730 3 40.0 20.8 4.8
731 1 41.6 19.2 3.2
732 3 43.2 20.8 4.8
733 1 44.8 19.2 3.2
734 3 46.4 20.8 4.8
735 4 48.0 19.2 3.2
736 2 49.6 20.8 4.8
737 1 0.0 22.4 3.2
738 2 1.6 24.0 4.8
739 1 3.2 22.4 3.2
740 3 4.8 24.0 4.8
741 2 6.4 22.4 3.2
742 3 8.0 24.0 4.8
743 3 9.6 22.4 3.2
744 3 11.2 24.0 4.8
745 4 12.8 22.4 3.2
746 2 14.4 24.0 4.8
747 2 16.0 22.4 3.2
748 4 17.6 24.0 4.8
749 4 19.2 22.4 3.2
750 2 20.8 24.0 4.8
751 3 22.4 22.4 3.2
752 1 24.0 24.0 4.8
753 3 25.6 22.4 3.2
754 4 27.2 24.0 4.8
755 2 28.8 22.4 3.2
756 2 30.4 24.0 4.8
757 1 32.0 22.4 3.2
758 3 33.6 24.0 4.8
759 4 35.2 22.4 3.2
760 2 36.8 24.0 4.8
761 4 38.4 22.4 3.2
762 4 40.0 24.0 4.8
763 1 41.6 22.4 3.2
764 2 43.2 24.0 4.8
765 1 44.8 22.4 3.2
766 3 46.4 24.0 4.8
767 1 48.0 22.4 3.2
768 2 49.6 24.0 4.8
769 1 0.0 25.6 3.2
770 3 1.6 27.2 4.8
771 1 3.2 25.6 3.2
772 3 4.8 27.2 4.8
773 1 6.4 25.6 3.2
774 3 8.0 27.2 4.8
775 4 9.6 25.6 3.2
776 4 11.2 27.2 4.8
777 1 12.8 25.6 3.2
778 2 14.4 27.2 4.8
779 1 16.0 25.6 3.2
780 1 17.6 27.2 4.8
781 4 19.2 25.6 3.2
782 1 20.8 27.2 4.8
783 3 22.4 25.6 3.2
784 4 24.0 27.2 4.8
785 3 25.6 25.6 3.2
786 4 27.2 27.2 4.8
787 2 28.8 25.6 3.2
788 2 30.4 27.2 4.8
789 2 32.0 25.6 3.2
790 1 33.6 27.2 4.8
791 4 35.2 25.6 3.2
792 1 36.8 27.2 4.8
793 2 38.4 25.6 3.2
794 1 40.0 27.2 4.8
795 4 41.6 25.6 3.2
796 4 43.2 27.2 4.8
797 1 44.8 25.6 3.2
798 3 46.4 27.2 4.8
799 1 48.0 25.6 3.2
800 3 49.6 27.2 4.8
801 1 0.0 28.8 3.2
802 3 1.6 30.4 4.8
803 1 3.2 28.8 3.2
804 3 4.8 30.4 4.8
805 1 6.4 28.8 3.2
806 3 8.0 30.4 4.8
807 1 9.6 28.8 3.2
808 2 11.2 30.4 4.8
809 2 12.8 28.8 3.2
810 1 14.4 30.4 4.8
811 2 16.0 28.8 3.2
812 1 17.6 30.4 4.8
813 2 19.2 28.8 3.2
814 4 20.8 30.4 4.8
815 4 22.4 28.8 3.2
816 4 24.0 30.4 4.8
817 1 25.6 28.8 3.2
818 2 27.2 30.4 4.8
819 1 28.8 28.8 3.2
820 2 30.4 30.4 4.8
821 2 32.0 28.8 3.2
822 4 33.6 30.4 4.8
823 2 35.2 28.8 3.2
824 1 36.8 30.4 4.8
825 3 38.4 28.8 3.2
826 1 40.0 30.4 4.8
827 3 41.6 28.8 3.2
828 4 43.2 30.4 4.8
829 2 44.8 28.8 3.2
830 2 46.4 30.4 4.8
831 1 48.0 28.8 3.2
832 3 49.6 30.4 4.8
833 1 0.0 32.0 3.2
834 2 1.6 33.6 4.8
835 1 3.2 32.0 3.2
836 3 4.8 33.6 4.8
837 1 6.4 32.0 3.2
838 3 8.0 33.6 4.8
839 1 9.6 32.0 3.2
840 4 11.2 33.6 4.8
841 2 12.8 32.0 3.2
842 2 14.4 33.6 4.8
843 2 16.0 32.0 3.2
844 1 17.6 33.6 4.8
845 3 19.2 32.0 3.2
846 1 20.8 33.6 4.8
847 3 22.4 32.0 3.2
848 3 24.0 33.6 4.8
849 1 25.6 32.0 3.2
850 2 27.2 33.6 4.8
851 1 28.8 32.0 3.2
852 2 30.4 33.6 4.8
853 2 32.0 32.0 3.2
854 4 33.6 33.6 4.8
855 3 35.2 32.0 3.2
856 1 36.8 33.6 4.8
857 3 38.4 32.0 3.2
858 1 40.0 33.6 4.8
859 3 41.6 32.0 3.2
860 3 43.2 33.6 4.8
861 1 44.8 32.0 3.2
862 2 46.4 33.6 4.8
863 1 48.0 32.0 3.2
864 3 49.6 33.6 4.8
865 1 0.0 35.2 3.2
866 2 1.6 36.8 4.8
867 4 3.2 35.2 3.2
868 2 4.8 36.8 4.8
869 1 6.4 35.2 3.2
870 2 8.0 36.8 4.8
871 1 9.6 35.2 3.2
872 4 11.2 36.8 4.8
873 3 12.8 35.2 3.2
874 1 14.4 36.8 4.8
875 2 16.0 35.2 3.2
876 2 17.6 36.8 4.8
877 3 19.2 35.2 3.2
878 1 20.8 36.8 4.8
879 4 22.4 35.2 3.2
880 3 24.0 36.8 4.8
881 1 25.6 35.2 3.2
882 2 27.2 36.8 4.8
883 1 28.8 35.2 3.2
884 4 30.4 36.8 4.8
885 4 32.0 35.2 3.2
886 1 33.6 36.8 4.8
887 2 35.2 35.2 3.2
888 1 36.8 36.8 4.8
889 3 38.4 35.2 3.2
890 1 40.0 36.8 4.8
891 2 41.6 35.2 3.2
892 2 43.2 36.8 4.8
893 4 44.8 35.2 3.2
894 2 46.4 36.8 4.8
895 4 48.0 35.2 3.2
896 2 49.6 36.8 4.8
897 1 0.0 38.4 3.2
898 4 1.6 40.0 4.8
899 3 3.2 38.4 3.2
900 4 4.8 40.0 4.8
901 2 6.4 38.4 3.2
902 4 8.0 40.0 4.8
903 2 9.6 38.4 3.2
904 1 11.2 40.0 4.8
905 2 12.8 38.4 3.2
906 2 14.4 40.0 4.8
907 4 16.0 38.4 3.2
908 2 17.6 40.0 4.8
909 2 19.2 38.4 3.2
910 4 20.8 40.0 4.8
911 4 22.4 38.4 3.2
912 4 24.0 40.0 4.8
913 4 25.6 38.4 3.2
914 1 27.2 40.0 4.8
915 2 28.8 38.4 3.2
916 1 30.4 40.0 4.8
917 3 32.0 38.4 3.2
918 1 33.6 40.0 4.8
919 2 35.2 38.4 3.2
920 4 36.8 40.0 4.8
921 2 38.4 38.4 3.2
922 3 40.0 40.0 4.8
923 2 41.6 38.4 3.2
924 4 43.2 40.0 4.8
925 2 44.8 38.4 3.2
926 2 46.4 40.0 4.8
927 1 48.0 38.4 3.2
928 3 49.6 40.0 4.8
929 1 0.0 41.6 3.2
930 2 1.6 43.2 4.8
931 2 3.2 41.6 3.2
932 2 4.8 43.2 4.8
933 4 6.4 41.6 3.2
934 4 8.0 43.2 4.8
935 3 9.6 41.6 3.2
936 3 11.2 43.2 4.8
937 4 12.8 41.6 3.2
938 3 14.4 43.2 4.8
939 4 16.0 41.6 3.2
940 3 17.6 43.2 4.8
941 2 19.2 41.6 3.2
942 4 20.8 43.2 4.8
943 3 22.4 41.6 3.2
944 1 24.0 43.2 4.8
945 4 25.6 41.6 3.2
946 1 27.2 43.2 4.8
947 2 28.8 41.6 3.2
948 4 30.4 43.2 4.8
949 3 32.0 41.6 3.2
950 1 33.6 43.2 4.8
951 2 35.2 41.6 3.2
952 2 36.8 43.2 4.8
953 4 38.4 41.6 3.2
954 3 40.0 43.2 4.8
955 3 41.6 41.6 3.2
956 2 43.2 43.2 4.8
957 2 44.8 41.6 3.2
958 2 46.4 43.2 4.8
959 1 48.0 41.6 3.2
960 3 49.6 43.2 4.8
961 1 0.0 44.8 3.2
962 4 1.6 46.4 4.8
963 1 3.2 44.8 3.2
964 2 4.8 46.4 4.8
965 1 6.4 44.8 3.2
966 3 8.0 46.4 4.8
967 4 9.6 44.8 3.2
968 4 11.2 46.4 4.8
969 4 12.8 44.8 3.2
970 1 14.4 46.4 4.8
971 4 16.0 44.8 3.2
972 1 17.6 46.4 4.8
973 2 19.2 44.8 3.2
974 1 20.8 46.4 4.8
975 3 22.4 44.8 3.2
976 4 24.0 46.4 4.8
977 2 25.6 44.8 3.2
978 4 27.2 46.4 4.8
979 2 28.8 44.8 3.2
980 1 30.4 46.4 4.8
981 3 32.0 44.8 3.2
982 1 33.6 46.4 4.8
983 2 35.2 44.8 3.2
984 3 36.8 46.4 4.8
985 4 38.4 44.8 3.2
986 4 40.0 46.4 4.8
987 3 41.6 44.8 3.2
988 4 43.2 46.4 4.8
989 2 44.8 44.8 3.2
990 1 46.4 46.4 4.8
991 4 48.0 44.8 3.2
992 2 49.6 46.4 4.8
993 3 0.0 48.0 3.2
994 1 1.6 49.6 4.8
995 3 3.2 48.0 3.2
996 4 4.8 49.6 4.8
997 4 6.4 48.0 3.2
998 1 8.0 49.6 4.8
999 3 9.6 48.0 3.2
1000 1 11.2 49.6 4.8
1001 2 12.8 48.0 3.2
1002 1 14.4 49.6 4.8
1003 2 16.0 48.0 3.2
1004 1 17.6 49.6 4.8
1005 3 19.2 48.0 3.2
1006 1 20.8 49.6 4.8
1007 3 22.4 48.0 3.2
1008 1 24.0 49.6 4.8
1009 3 25.6 48.0 3.2
1010 1 27.2 49.6 4.8
1011 3 28.8 48.0 3.2
1012 1 30.4 49.6 4.8
1013 3 32.0 48.0 3.2
1014 1 33.6 49.6 4.8
1015 4 35.2 48.0 3.2
1016 2 36.8 49.6 4.8
1017 1 38.4 48.0 3.2
1018 4 40.0 49.6 4.8
1019 3 41.6 48.0 3.2
1020 1 43.2 49.6 4.8
1021 3 44.8 48.0 3.2
1022 1 46.4 49.6 4.8
1023 2 48.0 48.0 3.2
1024 4 49.6 49.6 4.8
1025 3 0.0 0.0 6.4
1026 4 1.6 1.6 8.0
1027 4 3.2 0.0 6.4
1028 1 4.8 1.6 8.0
1029 3 6.4 0.0 6.4
1030 1 8.0 1.6 8.0
1031 3 9.6 0.0 6.4
1032 1 11.2 1.6 8.0
1033 2 12.8 0.0 6.4
1034 4 14.4 1.6 8.0
1035 3 16.0 0.0 6.4
1036 4 17.6 1.6 8.0
1037 2 19.2 0.0 6.4
1038 1 20.8 1.6 8.0
1039 3 22.4 0.0 6.4
1040 1 24.0 1.6 8.0
1041 3 25.6 0.0 6.4
1042 4 27.2 1.6 8.0
1043 2 28.8 0.0 6.4
1044 1 30.4 1.6 8.0
1045 2 32.0 0.0 6.4
1046 1 33.6 1.6 8.0
1047 3 35.2 0.0 6.4
1048 1 36.8 1.6 8.0
1049 2 38.4 0.0 6.4
1050 4 40.0 1.6 8.0
1051 2 41.6 0.0 6.4
1052 4 43.2 1.6 8.0
1053 3 44.8 0.0 6.4
1054 4 46.4 1.6 8.0
1055 2 48.0 0.0 6.4
1056 1 49.6 1.6 8.0
1057 3 0.0 3.2 6.4
1058 1 1.6 4.8 8.0
1059 2 3.2 3.2 6.4
1060 4 4.8 4.8 8.0
1061 3 6.4 3.2 6.4
1062 1 8.0 4.8 8.0
1063 3 9.6 3.2 6.4
1064 4 11.2 4.8 8.0
1065 3 12.8 3.2 6.4
1066 1 14.4 4.8 8.0
1067 3 16.0 3.2 6.4
1068 1 17.6 4.8 8.0
1069 3 19.2 3.2 6.4
1070 4 20.8 4.8 8.0
1071 3 22.4 3.2 6.4
1072 4 24.0 4.8 8.0
1073 3 25.6 3.2 6.4
1074 1 27.2 4.8 8.0
1075 2 28.8 3.2 6.4
1076 4 30.4 4.8 8.0
1077 4 32.0 3.2 6.4
1078 4 33.6 4.8 8.0
1079 3 35.2 3.2 6.4
1080 1 36.8 4.8 8.0
1081 2 38.4 3.2 6.4
1082 4 40.0 4.8 8.0
1083 3 41.6 3.2 6.4
1084 4 43.2 4.8 8.0
1085 3 44.8 3.2 6.4
1086 4 46.4 4.8 8.0
1087 2 48.0 3.2 6.4
1088 1 49.6 4.8 8.0
1089 3 0.0 6.4 6.4
1090 4 1.6 8.0 8.0
1091 3 3.2 6.4 6.4
1092 1 4.8 8.0 8.0
1093 2 6.4 6.4 6.4
1094 4 8.0 8.0 8.0
1095 3 9.6 6.4 6.4
1096 1 11.2 8.0 8.0
1097 2 12.8 6.4 6.4
1098 1 14.4 8.0 8.0
1099 3 16.0 6.4 6.4
1100 1 17.6 8.0 8.0
1101 3 19.2 6.4 6.4
1102 4 20.8 8.0 8.0
1103 2 22.4 6.4 6.4
1104 3 24.0 8.0 8.0
1105 2 25.6 6.4 6.4
1106 2 27.2 8.0 8.0
1107 2 28.8 6.4 6.4
1108 2 30.4 8.0 8.0
1109 1 32.0 6.4 6.4
1110 3 33.6 8.0 8.0
1111 4 35.2 6.4 6.4
1112 2 36.8 8.0 8.0
1113 4 38.4 6.4 6.4
1114 4 40.0 8.0 8.0
1115 3 41.6 6.4 6.4
1116 4 43.2 8.0 8.0
1117 1 44.8 6.4 6.4
1118 4 46.4 8.0 8.0
1119 2 48.0 6.4 6.4
1120 4 49.6 8.0 8.0
1121 2 0.0 9.6 6.4
1122 3 1.6 11.2 8.0
1123 3 3.2 9.6 6.4
1124 4 4.8 11.2 8.0
1125 3 6.4 9.6 6.4
1126 4 8.0 11.2 8.0
1127 3 9.6 9.6 6.4
1128 1 11.2 11.2 8.0
1129 2 12.8 9.6 6.4
1130 1 14.4 11.2 8.0
1131 2 16.0 9.6 6.4
1132 1 17.6 11.2 8.0
1133 2 19.2 9.6 6.4
1134 2 20.8 11.2 8.0
1135 2 22.4 9.6 6.4
1136 2 24.0 11.2 8.0
1137 1 25.6 9.6 6.4
1138 3 27.2 11.2 8.0
1139 4 28.8 9.6 6.4
1140 3 30.4 11.2 8.0
1141 1 32.0 9.6 6.4
1142 3 33.6 11.2 8.0
1143 1 35.2 9.6 6.4
1144 3 36.8 11.2 8.0
1145 1 38.4 9.6 6.4
1146 2 40.0 11.2 8.0
1147 4 41.6 9.6 6.4
1148 3 43.2 11.2 8.0
1149 1 44.8 9.6 6.4
1150 2 46.4 11.2 8.0
1151 4 48.0 9.6 6.4
1152 4 49.6 11.2 8.0
1153 4 0.0 12.8 6.4
1154 2 1.6 14.4 8.0
1155 2 3.2 12.8 6.4
1156 2 4.8 14.4 8.0
1157 3 6.4 12.8 6.4
1158 4 8.0 14.4 8.0
1159 3 9.6 12.8 6.4
1160 1 11.2 14.4 8.0
1161 2 12.8 12.8 6.4
1162 1 14.4 14.4 8.0
1163 4 16.0 12.8 6.4
1164 4 17.6 14.4 8.0
1165 4 19.2 12.8 6.4
1166 1 20.8 14.4 8.0
1167 2 22.4 12.8 6.4
1168 1 24.0 14.4 8.0
1169 4 25.6 12.8 6.4
1170 4 27.2 14.4 8.0
1171 4 28.8 12.8 6.4
1172 1 30.4 14.4 8.0
1173 1 32.0 12.8 6.4
1174 4 33.6 14.4 8.0
1175 2 35.2 12.8 6.4
1176 4 36.8 14.4 8.0
1177 1 38.4 12.8 6.4
1178 3 40.0 14.4 8.0
1179 1 41.6 12.8 6.4
1180 1 43.2 14.4 8.0
1181 4 44.8 12.8 6.4
1182 4 46.4 14.4 8.0
1183 4 48.0 12.8 6.4
1184 2 49.6 14.4 8.0
1185 4 0.0 16.0 6.4
1186 3 1.6 17.6 8.0
1187 4 3.2 16.0 6.4
1188 3 4.8 17.6 8.0
1189 2 6.4 16.0 6.4
1190 1 8.0 17.6 8.0
1191 3 9.6 16.0 6.4
1192 1 11.2 17.6 8.0
1193 3 12.8 16.0 6.4
1194 4 14.4 17.6 8.0
1195 4 16.0 16.0 6.4
1196 4 17.6 17.6 8.0
1197 3 19.2 16.0 6.4
1198 1 20.8 17.6 8.0
1199 3 22.4 16.0 6.4
1200 1 24.0 17.6 8.0
1201 2 25.6 16.0 6.4
1202 1 27.2 17.6 8.0
1203 3 28.8 16.0 6.4
1204 1 30.4 17.6 8.0
1205 3 32.0 16.0 6.4
1206 1 33.6 17.6 8.0
1207 2 35.2 16.0 6.4
1208 4 36.8 17.6 8.0
1209 4 38.4 16.0 6.4
1210 4 40.0 17.6 8.0
1211 1 41.6 16.0 6.4
1212 4 43.2 17.6 8.0
1213 2 44.8 16.0 6.4
1214 4 46.4 17.6 8.0
1215 1 48.0 16.0 6.4
1216 2 49.6 17.6 8.0
1217 4 0.0 19.2 6.4
1218 3 1.6 20.8 8.0
1219 4 3.2 19.2 6.4
1220 2 4.8 20.8 8.0
1221 3 6.4 19.2 6.4
1222 4 8.0 20.8 8.0
1223 3 9.6 19.2 6.4
1224 1 11.2 20.8 8.0
1225 2 12.8 19.2 6.4
1226 4 14.4 20.8 8.0
1227 3 16.0 19.2 6.4
1228 1 17.6 20.8 8.0
1229 4 19.2 19.2 6.4
1230 1 20.8 20.8 8.0
1231 3 22.4 19.2 6.4
1232 1 24.0 20.8 8.0
1233 3 25.6 19.2 6.4
1234 4 27.2 20.8 8.0
1235 4 28.8 19.2 6.4
1236 2 30.4 20.8 8.0
1237 3 32.0 19.2 6.4
1238 2 33.6 20.8 8.0
1239 2 35.2 19.2 6.4
1240 2 36.8 20.8 8.0
1241 4 38.4 19.2 6.4
1242 3 40.0 20.8 8.0
1243 1 41.6 19.2 6.4
1244 3 43.2 20.8 8.0
1245 1 44.8 19.2 6.4
1246 3 46.4 20.8 8.0
1247 1 48.0 19.2 6.4
1248 4 49.6 20.8 8.0
1249 1 0.0 22.4 6.4
1250 4 1.6 24.0 8.0
1251 1 3.2 22.4 6.4
1252 1 4.8 24.0 8.0
1253 2 6.4 22.4 6.4
1254 4 8.0 24.0 8.0
1255 3 9.6 22.4 6.4
1256 4 11.2 24.0 8.0
1257 2 12.8 22.4 6.4
1258 2 14.4 24.0 8.0
1259 2 16.0 22.4 6.4
1260 1 17.6 24.0 8.0
1261 3 19.2 22.4 6.4
1262 1 20.8 24.0 8.0
1263 3 22.4 22.4 6.4
1264 1 24.0 24.0 8.0
1265 3 25.6 22.4 6.4
1266 1 27.2 24.0 8.0
1267 4 28.8 22.4 6.4
1268 2 30.4 24.0 8.0
1269 1 32.0 22.4 6.4
1270 2 33.6 24.0 8.0
1271 4 35.2 22.4 6.4
1272 2 36.8 24.0 8.0
1273 1 38.4 22.4 6.4
1274 1 40.0 24.0 8.0
1275 4 41.6 22.4 6.4
1276 2 43.2 24.0 8.0
1277 1 44.8 22.4 6.4
1278 4 46.4 24.0 8.0
1279 1 48.0 22.4 6.4
1280 4 49.6 24.0 8.0
1281 1 0.0 25.6 6.4
1282 3 1.6 27.2 8.0
1283 1 3.2 25.6 6.4
1284 3 4.8 27.2 8.0
1285 1 6.4 25.6 6.4
1286 2 8.0 27.2 8.0
1287 1 9.6 25.6 6.4
1288 3 11.2 27.2 8.0
1289 4 12.8 25.6 6.4
1290 3 14.4 27.2 8.0
1291 4 16.0 25.6 6.4
1292 4 17.6 27.2 8.0
1293 3 19.2 25.6 6.4
1294 1 20.8 27.2 8.0
1295 3 22.4 25.6 6.4
1296 4 24.0 27.2 8.0
1297 3 25.6 25.6 6.4
1298 2 27.2 27.2 8.0
1299 4 28.8 25.6 6.4
1300 2 30.4 27.2 8.0
1301 1 32.0 25.6 6.4
1302 3 33.6 27.2 8.0
1303 2 35.2 25.6 6.4
1304 1 36.8 27.2 8.0
1305 2 38.4 25.6 6.4
1306 1 40.0 27.2 8.0
1307 3 41.6 25.6 6.4
1308 3 43.2 27.2 8.0
1309 1 44.8 25.6 6.4
1310 3 46.4 27.2 8.0
1311 4 48.0 25.6 6.4
1312 3 49.6 27.2 8.0
1313 1 0.0 28.8 6.4
1314 3 1.6 30.4 8.0
1315 1 3.2 28.8 6.4
1316 3 4.8 30.4 8.0
1317 1 6.4 28.8 6.4
1318 3 8.0 30.4 8.0
1319 4 9.6 28.8 6.4
1320 3 11.2 30.4 8.0
1321 1 12.8 28.8 6.4
1322 3 14.4 30.4 8.0
1323 3 16.0 28.8 6.4
1324 4 17.6 30.4 8.0
1325 2 19.2 28.8 6.4
1326 4 20.8 30.4 8.0
1327 3 22.4 28.8 6.4
1328 4 24.0 30.4 8.0
1329 2 25.6 28.8 6.4
1330 2 27.2 30.4 8.0
1331 4 28.8 28.8 6.4
1332 2 30.4 30.4 8.0
1333 4 32.0 28.8 6.4
1334 4 33.6 30.4 8.0
1335 3 35.2 28.8 6.4
1336 1 36.8 30.4 8.0
1337 2 38.4 28.8 6.4
1338 1 40.0 30.4 8.0
1339 3 41.6 28.8 6.4
1340 3 43.2 30.4 8.0
1341 1 44.8 28.8 6.4
1342 3 46.4 30.4 8.0
1343 1 48.0 28.8 6.4
1344 3 49.6 30.4 8.0
1345 1 0.0 32.0 6.4
1346 3 1.6 33.6 8.0
1347 1 3.2 32.0 6.4
1348 3 4.8 33.6 8.0
1349 1 6.4 32.0 6.4
1350 4 8.0 33.6 8.0
1351 4 9.6 32.0 6.4
1352 3 11.2 33.6 8.0
1353 1 12.8 32.0 6.4
1354 3 14.4 33.6 8.0
1355 3 16.0 32.0 6.4
1356 4 17.6 33.6 8.0
1357 3 19.2 32.0 6.4
1358 2 20.8 33.6 8.0
1359 3 22.4 32.0 6.4
1360 3 24.0 33.6 8.0
1361 4 25.6 32.0 6.4
1362 4 27.2 33.6 8.0
1363 4 28.8 32.0 6.4
1364 4 30.4 33.6 8.0
1365 2 32.0 32.0 6.4
1366 1 33.6 33.6 8.0
1367 3 35.2 32.0 6.4
1368 1 36.8 33.6 8.0
1369 3 38.4 32.0 6.4
1370 4 40.0 33.6 8.0
1371 3 41.6 32.0 6.4
1372 3 43.2 33.6 8.0
1373 1 44.8 32.0 6.4
1374 2 46.4 33.6 8.0
1375 1 48.0 32.0 6.4
1376 3 49.6 33.6 8.0
1377 4 0.0 35.2 6.4
1378 2 1.6 36.8 8.0
1379 1 3.2 35.2 6.4
1380 1 4.8 36.8 8.0
1381 1 6.4 35.2 6.4
1382 4 8.0 36.8 8.0
1383 2 9.6 35.2 6.4
1384 4 11.2 36.8 8.0
1385 4 12.8 35.2 6.4
1386 2 14.4 36.8 8.0
1387 2 16.0 35.2 6.4
1388 3 17.6 36.8 8.0
1389 2 19.2 35.2 6.4
1390 4 20.8 36.8 8.0
1391 2 22.4 35.2 6.4
1392 4 24.0 36.8 8.0
1393 4 25.6 35.2 6.4
1394 2 27.2 36.8 8.0
1395 4 28.8 35.2 6.4
1396 4 30.4 36.8 8.0
1397 3 32.0 35.2 6.4
1398 1 33.6 36.8 8.0
1399 3 35.2 35.2 6.4
1400 2 36.8 36.8 8.0
1401 2 38.4 35.2 6.4
1402 1 40.0 36.8 8.0
1403 1 41.6 35.2 6.4
1404 3 43.2 36.8 8.0
1405 1 44.8 35.2 6.4
1406 3 46.4 36.8 8.0
1407 4 48.0 35.2 6.4
1408 3 49.6 36.8 8.0
1409 1 0.0 38.4 6.4
1410 2 1.6 40.0 8.0
1411 3 3.2 38.4 6.4
1412 4 4.8 40.0 8.0
1413 3 6.4 38.4 6.4
1414 1 8.0 40.0 8.0
1415 3 9.6 38.4 6.4
1416 1 11.2 40.0 8.0
1417 2 12.8 38.4 6.4
1418 2 14.4 40.0 8.0
1419 4 16.0 38.4 6.4
1420 3 17.6 40.0 8.0
1421 1 19.2 38.4 6.4
1422 2 20.8 40.0 8.0
1423 2 22.4 38.4 6.4
1424 1 24.0 40.0 8.0
1425 3 25.6 38.4 6.4
1426 2 27.2 40.0 8.0
1427 3 28.8 38.4 6.4
1428 4 30.4 40.0 8.0
1429 2 32.0 38.4 6.4
1430 4 33.6 40.0 8.0
1431 2 35.2 38.4 6.4
1432 3 36.8 40.0 8.0
1433 1 38.4 38.4 6.4
1434 3 40.0 40.0 8.0
1435 4 41.6 38.4 6.4
1436 3 43.2 40.0 8.0
1437 4 44.8 38.4 6.4
1438 2 46.4 40.0 8.0
1439 4 48.0 38.4 6.4
1440 3 49.6 40.0 8.0
1441 4 0.0 41.6 6.4
1442 1 1.6 43.2 8.0
1443 3 3.2 41.6 6.4
1444 4 4.8 43.2 8.0
1445 2 6.4 41.6 6.4
1446 1 8.0 43.2 8.0
1447 3 9.6 41.6 6.4
1448 1 11.2 43.2 8.0
1449 3 12.8 41.6 6.4
1450 4 14.4 43.2 8.0
1451 4 16.0 41.6 6.4
1452 2 17.6 43.2 8.0
1453 1 19.2 41.6 6.4
1454 2 20.8 43.2 8.0
1455 2 22.4 41.6 6.4
1456 1 24.0 43.2 8.0
1457 3 25.6 41.6 6.4
1458 1 27.2 43.2 8.0
1459 2 28.8 41.6 6.4
1460 1 30.4 43.2 8.0
1461 3 32.0 41.6 6.4
1462 4 33.6 43.2 8.0
1463 2 35.2 41.6 6.4
1464 3 36.8 43.2 8.0
1465 1 38.4 41.6 6.4
1466 2 40.0 43.2 8.0
1467 1 41.6 41.6 6.4
1468 3 43.2 43.2 8.0
1469 1 44.8 41.6 6.4
1470 3 46.4 43.2 8.0
1471 1 48.0 41.6 6.4
1472 2 49.6 43.2 8.0
1473 3 0.0 44.8 6.4
1474 1 1.6 46.4 8.0
1475 2 3.2 44.8 6.4
1476 1 4.8 46.4 8.0
1477 4 6.4 44.8 6.4
1478 1 8.0 46.4 8.0
1479 2 9.6 44.8 6.4
1480 1 11.2 46.4 8.0
1481 3 12.8 44.8 6.4
1482 1 14.4 46.4 8.0
1483 1 16.0 44.8 6.4
1484 2 17.6 46.4 8.0
1485 4 19.2 44.8 6.4
1486 1 20.8 46.4 8.0
1487 2 22.4 44.8 6.4
1488 4 24.0 46.4 8.0
1489 2 25.6 44.8 6.4
1490 1 27.2 46.4 8.0
1491 2 28.8 44.8 6.4
1492 4 30.4 46.4 8.0
1493 3 32.0 44.8 6.4
1494 1 33.6 46.4 8.0
1495 3 35.2 44.8 6.4
1496 2 36.8 46.4 8.0
1497 4 38.4 44.8 6.4
1498 4 40.0 46.4 8.0
1499 2 41.6 44.8 6.4
1500 1 43.2 46.4 8.0