 # Bcc Mo oriented X=[100] Y=[010] Z=[001].
  
        8192  atoms
           4  atom types
 
      0.000000000000      51.200000000000  xlo xhi
      0.000000000000      51.200000000000  ylo yhi
      0.000000000000      51.200000000000  zlo zhi
 
 
 
Atoms # atomic

1 3 0.0 0.0 0.0
2 1 1.6 1.6 1.6
3 3 3.2 0.0 0.0
4 1 4.8 1.6 1.6
5 3 6.4 0.0 0.0
6 1 8.0 1.6 1.6
7 3 9.6 0.0 0.0
8 1 11.2 1.6 1.6
9 3 12.8 0.0 0.0
10 1 14.4 1.6 1.6
11 3 16.0 0.0 0.0
12 4 17.6 1.6 1.6
13 3 19.2 0.0 0.0
14 1 20.8 1.6 1.6
15 3 22.4 0.0 0.0
16 1 24.0 1.6 1.6
17 3 25.6 0.0 0.0
18 1 27.2 1.6 1.6
19 3 28.8 0.0 0.0
20 1 30.4 1.6 1.6
21 3 32.0 0.0 0.0
22 1 33.6 1.6 1.6
23 3 35.2 0.0 0.0
24 1 36.8 1.6 1.6
25 3 38.4 0.0 0.0
26 1 40.0 1.6 1.6
27 3 41.6 0.0 0.0
28 1 43.2 1.6 1.6
29 3 44.8 0.0 0.0
30 1 46.4 1.6 1.6
31 3 48.0 0.0 0.0
32 1 49.6 1.6 1.6
33 3 0.0 3.2 0.0
34 1 1.6 4.8 1.6
35 3 3.2 3.2 0.0
36 1 4.8 4.8 1.6
37 3 6.4 3.2 0.0
38 1 8.0 4.8 1.6
39 3 9.6 3.2 0.0
40 1 11.2 4.8 1.6
41 3 12.8 3.2 0.0
42 1 14.4 4.8 1.6
43 3 16.0 3.2 0.0
44 4 17.6 4.8 1.6
45 3 19.2 3.2 0.0
46 1 20.8 4.8 1.6
47 3 22.4 3.2 0.0
48 1 24.0 4.8 1.6
49 3 25.6 3.2 0.0
50 1 27.2 4.8 1.6
51 3 28.8 3.2 0.0
52 1 30.4 4.8 1.6
53 3 32.0 3.2 0.0
54 1 33.6 4.8 1.6
55 3 35.2 3.2 0.0
56 1 36.8 4.8 1.6
57 3 38.4 3.2 0.0
58 1 40.0 4.8 1.6
59 2 41.6 3.2 0.0
60 4 43.2 4.8 1.6
61 2 44.8 3.2 0.0
62 1 46.4 4.8 1.6
63 3 48.0 3.2 0.0
64 1 49.6 4.8 1.6
65 3 0.0 6.4 0.0
66 1 1.6 8.0 1.6
67 3 3.2 6.4 0.0
68 1 4.8 8.0 1.6
69 3 6.4 6.4 0.0
70 1 8.0 8.0 1.6
71 3 9.6 6.4 0.0
72 1 11.2 8.0 1.6
73 3 12.8 6.4 0.0
74 1 14.4 8.0 1.6
75 3 16.0 6.4 0.0
76 4 17.6 8.0 1.6
77 3 19.2 6.4 0.0
78 1 20.8 8.0 1.6
79 3 22.4 6.4 0.0
80 1 24.0 8.0 1.6
81 3 25.6 6.4 0.0
82 4 27.2 8.0 1.6
83 3 28.8 6.4 0.0
84 1 30.4 8.0 1.6
85 3 32.0 6.4 0.0
86 1 33.6 8.0 1.6
87 3 35.2 6.4 0.0
88 1 36.8 8.0 1.6
89 3 38.4 6.4 0.0
90 4 40.0 8.0 1.6
91 3 41.6 6.4 0.0
92 1 43.2 8.0 1.6
93 3 44.8 6.4 0.0
94 1 46.4 8.0 1.6
95 3 48.0 6.4 0.0
96 1 49.6 8.0 1.6
97 4 0.0 9.6 0.0
98 4 1.6 11.2 1.6
99 3 3.2 9.6 0.0
100 1 4.8 11.2 1.6
101 3 6.4 9.6 0.0
102 1 8.0 11.2 1.6
103 2 9.6 9.6 0.0
104 1 11.2 11.2 1.6
105 3 12.8 9.6 0.0
106 1 14.4 11.2 1.6
107 3 16.0 9.6 0.0
108 1 17.6 11.2 1.6
109 3 19.2 9.6 0.0
110 1 20.8 11.2 1.6
111 3 22.4 9.6 0.0
112 4 24.0 11.2 1.6
113 2 25.6 9.6 0.0
114 1 27.2 11.2 1.6
115 3 28.8 9.6 0.0
116 4 30.4 11.2 1.6
117 3 32.0 9.6 0.0
118 1 33.6 11.2 1.6
119 3 35.2 9.6 0.0
120 1 36.8 11.2 1.6
121 3 38.4 9.6 0.0
122 4 40.0 11.2 1.6
123 3 41.6 9.6 0.0
124 1 43.2 11.2 1.6
125 3 44.8 9.6 0.0
126 1 46.4 11.2 1.6
127 3 48.0 9.6 0.0
128 4 49.6 11.2 1.6
129 4 0.0 12.8 0.0
130 3 1.6 14.4 1.6
131 4 3.2 12.8 0.0
132 4 4.8 14.4 1.6
133 2 6.4 12.8 0.0
134 4 8.0 14.4 1.6
135 2 9.6 12.8 0.0
136 2 11.2 14.4 1.6
137 4 12.8 12.8 0.0
138 1 14.4 14.4 1.6
139 3 16.0 12.8 0.0
140 1 17.6 14.4 1.6
141 3 19.2 12.8 0.0
142 1 20.8 14.4 1.6
143 3 22.4 12.8 0.0
144 1 24.0 14.4 1.6
145 2 25.6 12.8 0.0
146 1 27.2 14.4 1.6
147 3 28.8 12.8 0.0
148 4 30.4 14.4 1.6
149 3 32.0 12.8 0.0
150 4 33.6 14.4 1.6
151 3 35.2 12.8 0.0
152 4 36.8 14.4 1.6
153 3 38.4 12.8 0.0
154 2 40.0 14.4 1.6
155 2 41.6 12.8 0.0
156 1 43.2 14.4 1.6
157 2 44.8 12.8 0.0
158 4 46.4 14.4 1.6
159 2 48.0 12.8 0.0
160 2 49.6 14.4 1.6
161 4 0.0 16.0 0.0
162 2 1.6 17.6 1.6
163 4 3.2 16.0 0.0
164 3 4.8 17.6 1.6
165 1 6.4 16.0 0.0
166 3 8.0 17.6 1.6
167 4 9.6 16.0 0.0
168 3 11.2 17.6 1.6
169 4 12.8 16.0 0.0
170 2 14.4 17.6 1.6
171 2 16.0 16.0 0.0
172 1 17.6 17.6 1.6
173 3 19.2 16.0 0.0
174 4 20.8 17.6 1.6
175 3 22.4 16.0 0.0
176 2 24.0 17.6 1.6
177 4 25.6 16.0 0.0
178 2 27.2 17.6 1.6
179 2 28.8 16.0 0.0
180 3 30.4 17.6 1.6
181 4 32.0 16.0 0.0
182 2 33.6 17.6 1.6
183 4 35.2 16.0 0.0
184 2 36.8 17.6 1.6
185 2 38.4 16.0 0.0
186 2 40.0 17.6 1.6
187 4 41.6 16.0 0.0
188 2 43.2 17.6 1.6
189 2 44.8 16.0 0.0
190 2 46.4 17.6 1.6
191 4 48.0 16.0 0.0
192 2 49.6 17.6 1.6
193 1 0.0 19.2 0.0
194 3 1.6 20.8 1.6
195 1 3.2 19.2 0.0
196 3 4.8 20.8 1.6
197 1 6.4 19.2 0.0
198 3 8.0 20.8 1.6
199 1 9.6 19.2 0.0
200 3 11.2 20.8 1.6
201 4 12.8 19.2 0.0
202 4 14.4 20.8 1.6
203 2 16.0 19.2 0.0
204 2 17.6 20.8 1.6
205 4 19.2 19.2 0.0
206 3 20.8 20.8 1.6
207 4 22.4 19.2 0.0
208 3 24.0 20.8 1.6
209 4 25.6 19.2 0.0
210 3 27.2 20.8 1.6
211 4 28.8 19.2 0.0
212 2 30.4 20.8 1.6
213 4 32.0 19.2 0.0
214 3 33.6 20.8 1.6
215 4 35.2 19.2 0.0
216 3 36.8 20.8 1.6
217 4 38.4 19.2 0.0
218 2 40.0 20.8 1.6
219 4 41.6 19.2 0.0
220 3 43.2 20.8 1.6
221 4 44.8 19.2 0.0
222 2 46.4 20.8 1.6
223 4 48.0 19.2 0.0
224 3 49.6 20.8 1.6
225 1 0.0 22.4 0.0
226 3 1.6 24.0 1.6
227 1 3.2 22.4 0.0
228 3 4.8 24.0 1.6
229 1 6.4 22.4 0.0
230 3 8.0 24.0 1.6
231 4 9.6 22.4 0.0
232 2 11.2 24.0 1.6
233 4 12.8 22.4 0.0
234 2 14.4 24.0 1.6
235 4 16.0 22.4 0.0
236 4 17.6 24.0 1.6
237 4 19.2 22.4 0.0
238 3 20.8 24.0 1.6
239 1 22.4 22.4 0.0
240 3 24.0 24.0 1.6
241 1 25.6 22.4 0.0
242 3 27.2 24.0 1.6
243 4 28.8 22.4 0.0
244 2 30.4 24.0 1.6
245 4 32.0 22.4 0.0
246 3 33.6 24.0 1.6
247 1 35.2 22.4 0.0
248 3 36.8 24.0 1.6
249 4 38.4 22.4 0.0
250 3 40.0 24.0 1.6
251 1 41.6 22.4 0.0
252 3 43.2 24.0 1.6
253 1 44.8 22.4 0.0
254 2 46.4 24.0 1.6
255 1 48.0 22.4 0.0
256 3 49.6 24.0 1.6
257 1 0.0 25.6 0.0
258 3 1.6 27.2 1.6
259 1 3.2 25.6 0.0
260 3 4.8 27.2 1.6
261 1 6.4 25.6 0.0
262 3 8.0 27.2 1.6
263 1 9.6 25.6 0.0
264 3 11.2 27.2 1.6
265 4 12.8 25.6 0.0
266 3 14.4 27.2 1.6
267 4 16.0 25.6 0.0
268 3 17.6 27.2 1.6
269 1 19.2 25.6 0.0
270 3 20.8 27.2 1.6
271 1 22.4 25.6 0.0
272 3 24.0 27.2 1.6
273 1 25.6 25.6 0.0
274 3 27.2 27.2 1.6
275 1 28.8 25.6 0.0
276 2 30.4 27.2 1.6
277 1 32.0 25.6 0.0
278 2 33.6 27.2 1.6
279 4 35.2 25.6 0.0
280 2 36.8 27.2 1.6
281 4 38.4 25.6 0.0
282 3 40.0 27.2 1.6
283 1 41.6 25.6 0.0
284 2 43.2 27.2 1.6
285 1 44.8 25.6 0.0
286 3 46.4 27.2 1.6
287 1 48.0 25.6 0.0
288 2 49.6 27.2 1.6
289 4 0.0 28.8 0.0
290 3 1.6 30.4 1.6
291 1 3.2 28.8 0.0
292 2 4.8 30.4 1.6
293 1 6.4 28.8 0.0
294 3 8.0 30.4 1.6
295 1 9.6 28.8 0.0
296 3 11.2 30.4 1.6
297 1 12.8 28.8 0.0
298 2 14.4 30.4 1.6
299 1 16.0 28.8 0.0
300 3 17.6 30.4 1.6
301 1 19.2 28.8 0.0
302 3 20.8 30.4 1.6
303 1 22.4 28.8 0.0
304 3 24.0 30.4 1.6
305 1 25.6 28.8 0.0
306 2 27.2 30.4 1.6
307 1 28.8 28.8 0.0
308 3 30.4 30.4 1.6
309 1 32.0 28.8 0.0
310 3 33.6 30.4 1.6
311 4 35.2 28.8 0.0
312 2 36.8 30.4 1.6
313 4 38.4 28.8 0.0
314 2 40.0 30.4 1.6
315 4 41.6 28.8 0.0
316 2 43.2 30.4 1.6
317 1 44.8 28.8 0.0
318 2 46.4 30.4 1.6
319 1 48.0 28.8 0.0
320 3 49.6 30.4 1.6
321 1 0.0 32.0 0.0
322 3 1.6 33.6 1.6
323 1 3.2 32.0 0.0
324 3 4.8 33.6 1.6
325 1 6.4 32.0 0.0
326 2 8.0 33.6 1.6
327 1 9.6 32.0 0.0
328 3 11.2 33.6 1.6
329 1 12.8 32.0 0.0
330 3 14.4 33.6 1.6
331 1 16.0 32.0 0.0
332 4 17.6 33.6 1.6
333 4 19.2 32.0 0.0
334 2 20.8 33.6 1.6
335 1 22.4 32.0 0.0
336 3 24.0 33.6 1.6
337 1 25.6 32.0 0.0
338 3 27.2 33.6 1.6
339 1 28.8 32.0 0.0
340 2 30.4 33.6 1.6
341 1 32.0 32.0 0.0
342 2 33.6 33.6 1.6
343 1 35.2 32.0 0.0
344 2 36.8 33.6 1.6
345 4 38.4 32.0 0.0
346 2 40.0 33.6 1.6
347 4 41.6 32.0 0.0
348 2 43.2 33.6 1.6
349 1 44.8 32.0 0.0
350 2 46.4 33.6 1.6
351 1 48.0 32.0 0.0
352 2 49.6 33.6 1.6
353 1 0.0 35.2 0.0
354 3 1.6 36.8 1.6
355 1 3.2 35.2 0.0
356 2 4.8 36.8 1.6
357 1 6.4 35.2 0.0
358 2 8.0 36.8 1.6
359 1 9.6 35.2 0.0
360 2 11.2 36.8 1.6
361 1 12.8 35.2 0.0
362 4 14.4 36.8 1.6
363 4 16.0 35.2 0.0
364 2 17.6 36.8 1.6
365 4 19.2 35.2 0.0
366 2 20.8 36.8 1.6
367 1 22.4 35.2 0.0
368 4 24.0 36.8 1.6
369 1 25.6 35.2 0.0
370 2 27.2 36.8 1.6
371 4 28.8 35.2 0.0
372 2 30.4 36.8 1.6
373 4 32.0 35.2 0.0
374 4 33.6 36.8 1.6
375 2 35.2 35.2 0.0
376 4 36.8 36.8 1.6
377 3 38.4 35.2 0.0
378 4 40.0 36.8 1.6
379 2 41.6 35.2 0.0
380 4 43.2 36.8 1.6
381 4 44.8 35.2 0.0
382 2 46.4 36.8 1.6
383 1 48.0 35.2 0.0
384 2 49.6 36.8 1.6
385 4 0.0 38.4 0.0
386 2 1.6 40.0 1.6
387 4 3.2 38.4 0.0
388 2 4.8 40.0 1.6
389 4 6.4 38.4 0.0
390 4 8.0 40.0 1.6
391 4 9.6 38.4 0.0
392 4 11.2 40.0 1.6
393 2 12.8 38.4 0.0
394 4 14.4 40.0 1.6
395 4 16.0 38.4 0.0
396 2 17.6 40.0 1.6
397 2 19.2 38.4 0.0
398 4 20.8 40.0 1.6
399 4 22.4 38.4 0.0
400 4 24.0 40.0 1.6
401 2 25.6 38.4 0.0
402 1 27.2 40.0 1.6
403 4 28.8 38.4 0.0
404 4 30.4 40.0 1.6
405 3 32.0 38.4 0.0
406 1 33.6 40.0 1.6
407 3 35.2 38.4 0.0
408 1 36.8 40.0 1.6
409 2 38.4 38.4 0.0
410 4 40.0 40.0 1.6
411 3 41.6 38.4 0.0
412 1 43.2 40.0 1.6
413 2 44.8 38.4 0.0
414 4 46.4 40.0 1.6
415 2 48.0 38.4 0.0
416 4 49.6 40.0 1.6
417 4 0.0 41.6 0.0
418 4 1.6 43.2 1.6
419 2 3.2 41.6 0.0
420 2 4.8 43.2 1.6
421 4 6.4 41.6 0.0
422 4 8.0 43.2 1.6
423 3 9.6 41.6 0.0
424 1 11.2 43.2 1.6
425 3 12.8 41.6 0.0
426 1 14.4 43.2 1.6
427 2 16.0 41.6 0.0
428 4 17.6 43.2 1.6
429 2 19.2 41.6 0.0
430 4 20.8 43.2 1.6
431 4 22.4 41.6 0.0
432 1 24.0 43.2 1.6
433 3 25.6 41.6 0.0
434 1 27.2 43.2 1.6
435 2 28.8 41.6 0.0
436 1 30.4 43.2 1.6
437 3 32.0 41.6 0.0
438 1 33.6 43.2 1.6
439 3 35.2 41.6 0.0
440 1 36.8 43.2 1.6
441 3 38.4 41.6 0.0
442 1 40.0 43.2 1.6
443 3 41.6 41.6 0.0
444 4 43.2 43.2 1.6
445 2 44.8 41.6 0.0
446 1 46.4 43.2 1.6
447 2 48.0 41.6 0.0
448 4 49.6 43.2 1.6
449 2 0.0 44.8 0.0
450 2 1.6 46.4 1.6
451 4 3.2 44.8 0.0
452 2 4.8 46.4 1.6
453 4 6.4 44.8 0.0
454 4 8.0 46.4 1.6
455 3 9.6 44.8 0.0
456 1 11.2 46.4 1.6
457 2 12.8 44.8 0.0
458 1 14.4 46.4 1.6
459 2 16.0 44.8 0.0
460 1 17.6 46.4 1.6
461 2 19.2 44.8 0.0
462 1 20.8 46.4 1.6
463 3 22.4 44.8 0.0
464 1 24.0 46.4 1.6
465 3 25.6 44.8 0.0
466 1 27.2 46.4 1.6
467 3 28.8 44.8 0.0
468 1 30.4 46.4 1.6
469 3 32.0 44.8 0.0
470 4 33.6 46.4 1.6
471 3 35.2 44.8 0.0
472 1 36.8 46.4 1.6
473 3 38.4 44.8 0.0
474 1 40.0 46.4 1.6
475 2 41.6 44.8 0.0
476 1 43.2 46.4 1.6
477 3 44.8 44.8 0.0
478 4 46.4 46.4 1.6
479 3 48.0 44.8 0.0
480 4 49.6 46.4 1.6
481 2 0.0 48.0 0.0
482 1 1.6 49.6 1.6
483 4 3.2 48.0 0.0
484 1 4.8 49.6 1.6
485 2 6.4 48.0 0.0
486 1 8.0 49.6 1.6
487 3 9.6 48.0 0.0
488 4 11.2 49.6 1.6
489 3 12.8 48.0 0.0
490 1 14.4 49.6 1.6
491 3 16.0 48.0 0.0
492 4 17.6 49.6 1.6
493 3 19.2 48.0 0.0
494 1 20.8 49.6 1.6
495 3 22.4 48.0 0.0
496 1 24.0 49.6 1.6
497 3 25.6 48.0 0.0
498 1 27.2 49.6 1.6
499 3 28.8 48.0 0.0
500 1 30.4 49.6 1.6
501 3 32.0 48.0 0.0
502 1 33.6 49.6 1.6
503 3 35.2 48.0 0.0
504 1 36.8 49.6 1.6
505 2 38.4 48.0 0.0
506 1 40.0 49.6 1.6
507 3 41.6 48.0 0.0
508 1 43.2 49.6 1.6
509 3 44.8 48.0 0.0
510 1 46.4 49.6 1.6
511 3 48.0 48.0 0.0
512 1 49.6 49.6 1.6
513 3 0.0 0.0 3.2
514 1 1.6 1.6 4.8
515 2 3.2 0.0 3.2
516 1 4.8 1.6 4.8
517 3 6.4 0.0 3.2
518 1 8.0 1.6 4.8
519 3 9.6 0.0 3.2
520 1 11.2 1.6 4.8
521 3 12.8 0.0 3.2
522 1 14.4 1.6 4.8
523 3 16.0 0.0 3.2
524 1 17.6 1.6 4.8
525 2 19.2 0.0 3.2
526 4 20.8 1.6 4.8
527 2 22.4 0.0 3.2
528 1 24.0 1.6 4.8
529 3 25.6 0.0 3.2
530 1 27.2 1.6 4.8
531 3 28.8 0.0 3.2
532 1 30.4 1.6 4.8
533 3 32.0 0.0 3.2
534 1 33.6 1.6 4.8
535 3 35.2 0.0 3.2
536 1 36.8 1.6 4.8
537 3 38.4 0.0 3.2
538 1 40.0 1.6 4.8
539 3 41.6 0.0 3.2
540 1 43.2 1.6 4.8
541 3 44.8 0.0 3.2
542 4 46.4 1.6 4.8
543 3 48.0 0.0 3.2
544 1 49.6 1.6 4.8
545 3 0.0 3.2 3.2
546 1 1.6 4.8 4.8
547 3 3.2 3.2 3.2
548 4 4.8 4.8 4.8
549 3 6.4 3.2 3.2
550 4 8.0 4.8 4.8
551 3 9.6 3.2 3.2
552 1 11.2 4.8 4.8
553 3 12.8 3.2 3.2
554 1 14.4 4.8 4.8
555 3 16.0 3.2 3.2
556 4 17.6 4.8 4.8
557 2 19.2 3.2 3.2
558 4 20.8 4.8 4.8
559 3 22.4 3.2 3.2
560 1 24.0 4.8 4.8
561 3 25.6 3.2 3.2
562 4 27.2 4.8 4.8
563 3 28.8 3.2 3.2
564 4 30.4 4.8 4.8
565 3 32.0 3.2 3.2
566 1 33.6 4.8 4.8
567 3 35.2 3.2 3.2
568 4 36.8 4.8 4.8
569 3 38.4 3.2 3.2
570 1 40.0 4.8 4.8
571 3 41.6 3.2 3.2
572 1 43.2 4.8 4.8
573 3 44.8 3.2 3.2
574 1 46.4 4.8 4.8
575 3 48.0 3.2 3.2
576 1 49.6 4.8 4.8
577 3 0.0 6.4 3.2
578 1 1.6 8.0 4.8
579 3 3.2 6.4 3.2
580 1 4.8 8.0 4.8
581 3 6.4 6.4 3.2
582 1 8.0 8.0 4.8
583 3 9.6 6.4 3.2
584 4 11.2 8.0 4.8
585 3 12.8 6.4 3.2
586 1 14.4 8.0 4.8
587 2 16.0 6.4 3.2
588 4 17.6 8.0 4.8
589 2 19.2 6.4 3.2
590 1 20.8 8.0 4.8
591 3 22.4 6.4 3.2
592 1 24.0 8.0 4.8
593 3 25.6 6.4 3.2
594 4 27.2 8.0 4.8
595 3 28.8 6.4 3.2
596 4 30.4 8.0 4.8
597 2 32.0 6.4 3.2
598 4 33.6 8.0 4.8
599 3 35.2 6.4 3.2
600 4 36.8 8.0 4.8
601 2 38.4 6.4 3.2
602 1 40.0 8.0 4.8
603 3 41.6 6.4 3.2
604 1 43.2 8.0 4.8
605 3 44.8 6.4 3.2
606 1 46.4 8.0 4.8
607 3 48.0 6.4 3.2
608 1 49.6 8.0 4.8
609 3 0.0 9.6 3.2
610 1 1.6 11.2 4.8
611 3 3.2 9.6 3.2
612 4 4.8 11.2 4.8
613 3 6.4 9.6 3.2
614 1 8.0 11.2 4.8
615 3 9.6 9.6 3.2
616 1 11.2 11.2 4.8
617 3 12.8 9.6 3.2
618 1 14.4 11.2 4.8
619 3 16.0 9.6 3.2
620 1 17.6 11.2 4.8
621 3 19.2 9.6 3.2
622 1 20.8 11.2 4.8
623 3 22.4 9.6 3.2
624 4 24.0 11.2 4.8
625 2 25.6 9.6 3.2
626 1 27.2 11.2 4.8
627 2 28.8 9.6 3.2
628 2 30.4 11.2 4.8
629 2 32.0 9.6 3.2
630 4 33.6 11.2 4.8
631 2 35.2 9.6 3.2
632 4 36.8 11.2 4.8
633 2 38.4 9.6 3.2
634 2 40.0 11.2 4.8
635 3 41.6 9.6 3.2
636 1 43.2 11.2 4.8
637 3 44.8 9.6 3.2
638 1 46.4 11.2 4.8
639 2 48.0 9.6 3.2
640 4 49.6 11.2 4.8
641 4 0.0 12.8 3.2
642 2 1.6 14.4 4.8
643 2 3.2 12.8 3.2
644 4 4.8 14.4 4.8
645 3 6.4 12.8 3.2
646 1 8.0 14.4 4.8
647 3 9.6 12.8 3.2
648 4 11.2 14.4 4.8
649 3 12.8 12.8 3.2
650 4 14.4 14.4 4.8
651 3 16.0 12.8 3.2
652 1 17.6 14.4 4.8
653 3 19.2 12.8 3.2
654 1 20.8 14.4 4.8
655 3 22.4 12.8 3.2
656 4 24.0 14.4 4.8
657 2 25.6 12.8 3.2
658 4 27.2 14.4 4.8
659 2 28.8 12.8 3.2
660 4 30.4 14.4 4.8
661 3 32.0 12.8 3.2
662 2 33.6 14.4 4.8
663 2 35.2 12.8 3.2
664 4 36.8 14.4 4.8
665 4 38.4 12.8 3.2
666 3 40.0 14.4 4.8
667 2 41.6 12.8 3.2
668 2 43.2 14.4 4.8
669 2 44.8 12.8 3.2
670 2 46.4 14.4 4.8
671 4 48.0 12.8 3.2
672 4 49.6 14.4 4.8
673 1 0.0 16.0 3.2
674 3 1.6 17.6 4.8
675 4 3.2 16.0 3.2
676 3 4.8 17.6 4.8
677 3 6.4 16.0 3.2
678 4 8.0 17.6 4.8
679 4 9.6 16.0 3.2
680 4 11.2 17.6 4.8
681 2 12.8 16.0 3.2
682 4 14.4 17.6 4.8
683 2 16.0 16.0 3.2
684 1 17.6 17.6 4.8
685 3 19.2 16.0 3.2
686 1 20.8 17.6 4.8
687 3 22.4 16.0 3.2
688 4 24.0 17.6 4.8
689 2 25.6 16.0 3.2
690 1 27.2 17.6 4.8
691 4 28.8 16.0 3.2
692 4 30.4 17.6 4.8
693 2 32.0 16.0 3.2
694 2 33.6 17.6 4.8
695 4 35.2 16.0 3.2
696 2 36.8 17.6 4.8
697 4 38.4 16.0 3.2
698 2 40.0 17.6 4.8
699 4 41.6 16.0 3.2
700 2 43.2 17.6 4.8
701 2 44.8 16.0 3.2
702 3 46.4 17.6 4.8
703 2 48.0 16.0 3.2
704 2 49.6 17.6 4.8
705 1 0.0 19.2 3.2
706 3 1.6 20.8 4.8
707 1 3.2 19.2 3.2
708 3 4.8 20.8 4.8
709 4 6.4 19.2 3.2
710 3 8.0 20.8 4.8
711 1 9.6 19.2 3.2
712 3 11.2 20.8 4.8
713 4 12.8 19.2 3.2
714 3 14.4 20.8 4.8
715 2 16.0 19.2 3.2
716 4 17.6 20.8 4.8
717 4 19.2 19.2 3.2
718 2 20.8 20.8 4.8
719 4 22.4 19.2 3.2
720 4 24.0 20.8 4.8
721 4 25.6 19.2 3.2
722 2 27.2 20.8 4.8
723 4 28.8 19.2 3.2
724 2 30.4 20.8 4.8
725 1 32.0 19.2 3.2
726 2 33.6 20.8 4.8
727 1 35.2 19.2 3.2
728 2 36.8 20.8 4.8
729 1 38.4 19.2 3.2
730 3 40.0 20.8 4.8
731 1 41.6 19.2 3.2
732 3 43.2 20.8 4.8
733 4 44.8 19.2 3.2
734 3 46.4 20.8 4.8
735 4 48.0 19.2 3.2
736 3 49.6 20.8 4.8
737 1 0.0 22.4 3.2
738 3 1.6 24.0 4.8
739 1 3.2 22.4 3.2
740 3 4.8 24.0 4.8
741 1 6.4 22.4 3.2
742 3 8.0 24.0 4.8
743 1 9.6 22.4 3.2
744 2 11.2 24.0 4.8
745 1 12.8 22.4 3.2
746 2 14.4 24.0 4.8
747 4 16.0 22.4 3.2
748 2 17.6 24.0 4.8
749 2 19.2 22.4 3.2
750 4 20.8 24.0 4.8
751 4 22.4 22.4 3.2
752 2 24.0 24.0 4.8
753 2 25.6 22.4 3.2
754 3 27.2 24.0 4.8
755 4 28.8 22.4 3.2
756 3 30.4 24.0 4.8
757 1 32.0 22.4 3.2
758 3 33.6 24.0 4.8
759 1 35.2 22.4 3.2
760 2 36.8 24.0 4.8
761 4 38.4 22.4 3.2
762 3 40.0 24.0 4.8
763 1 41.6 22.4 3.2
764 3 43.2 24.0 4.8
765 1 44.8 22.4 3.2
766 3 46.4 24.0 4.8
767 1 48.0 22.4 3.2
768 3 49.6 24.0 4.8
769 1 0.0 25.6 3.2
770 3 1.6 27.2 4.8
771 1 3.2 25.6 3.2
772 3 4.8 27.2 4.8
773 1 6.4 25.6 3.2
774 3 8.0 27.2 4.8
775 1 9.6 25.6 3.2
776 3 11.2 27.2 4.8
777 1 12.8 25.6 3.2
778 3 14.4 27.2 4.8
779 4 16.0 25.6 3.2
780 2 17.6 27.2 4.8
781 4 19.2 25.6 3.2
782 3 20.8 27.2 4.8
783 4 22.4 25.6 3.2
784 3 24.0 27.2 4.8
785 4 25.6 25.6 3.2
786 3 27.2 27.2 4.8
787 1 28.8 25.6 3.2
788 4 30.4 27.2 4.8
789 4 32.0 25.6 3.2
790 3 33.6 27.2 4.8
791 1 35.2 25.6 3.2
792 2 36.8 27.2 4.8
793 1 38.4 25.6 3.2
794 3 40.0 27.2 4.8
795 1 41.6 25.6 3.2
796 3 43.2 27.2 4.8
797 1 44.8 25.6 3.2
798 3 46.4 27.2 4.8
799 1 48.0 25.6 3.2
800 3 49.6 27.2 4.8
801 1 0.0 28.8 3.2
802 2 1.6 30.4 4.8
803 1 3.2 28.8 3.2
804 3 4.8 30.4 4.8
805 1 6.4 28.8 3.2
806 3 8.0 30.4 4.8
807 4 9.6 28.8 3.2
808 3 11.2 30.4 4.8
809 1 12.8 28.8 3.2
810 3 14.4 30.4 4.8
811 1 16.0 28.8 3.2
812 2 17.6 30.4 4.8
813 1 19.2 28.8 3.2
814 3 20.8 30.4 4.8
815 1 22.4 28.8 3.2
816 3 24.0 30.4 4.8
817 1 25.6 28.8 3.2
818 2 27.2 30.4 4.8
819 4 28.8 28.8 3.2
820 2 30.4 30.4 4.8
821 4 32.0 28.8 3.2
822 3 33.6 30.4 4.8
823 1 35.2 28.8 3.2
824 3 36.8 30.4 4.8
825 1 38.4 28.8 3.2
826 4 40.0 30.4 4.8
827 4 41.6 28.8 3.2
828 3 43.2 30.4 4.8
829 4 44.8 28.8 3.2
830 2 46.4 30.4 4.8
831 4 48.0 28.8 3.2
832 3 49.6 30.4 4.8
833 1 0.0 32.0 3.2
834 2 1.6 33.6 4.8
835 1 3.2 32.0 3.2
836 3 4.8 33.6 4.8
837 1 6.4 32.0 3.2
838 3 8.0 33.6 4.8
839 1 9.6 32.0 3.2
840 3 11.2 33.6 4.8
841 1 12.8 32.0 3.2
842 2 14.4 33.6 4.8
843 4 16.0 32.0 3.2
844 2 17.6 33.6 4.8
845 4 19.2 32.0 3.2
846 3 20.8 33.6 4.8
847 4 22.4 32.0 3.2
848 2 24.0 33.6 4.8
849 4 25.6 32.0 3.2
850 2 27.2 33.6 4.8
851 4 28.8 32.0 3.2
852 3 30.4 33.6 4.8
853 4 32.0 32.0 3.2
854 2 33.6 33.6 4.8
855 1 35.2 32.0 3.2
856 1 36.8 33.6 4.8
857 1 38.4 32.0 3.2
858 1 40.0 33.6 4.8
859 2 41.6 32.0 3.2
860 3 43.2 33.6 4.8
861 4 44.8 32.0 3.2
862 3 46.4 33.6 4.8
863 1 48.0 32.0 3.2
864 3 49.6 33.6 4.8
865 4 0.0 35.2 3.2
866 3 1.6 36.8 4.8
867 1 3.2 35.2 3.2
868 3 4.8 36.8 4.8
869 4 6.4 35.2 3.2
870 3 8.0 36.8 4.8
871 1 9.6 35.2 3.2
872 2 11.2 36.8 4.8
873 4 12.8 35.2 3.2
874 2 14.4 36.8 4.8
875 4 16.0 35.2 3.2
876 2 17.6 36.8 4.8
877 4 19.2 35.2 3.2
878 2 20.8 36.8 4.8
879 1 22.4 35.2 3.2
880 2 24.0 36.8 4.8
881 1 25.6 35.2 3.2
882 2 27.2 36.8 4.8
883 4 28.8 35.2 3.2
884 4 30.4 36.8 4.8
885 4 32.0 35.2 3.2
886 4 33.6 36.8 4.8
887 4 35.2 35.2 3.2
888 4 36.8 36.8 4.8
889 2 38.4 35.2 3.2
890 4 40.0 36.8 4.8
891 2 41.6 35.2 3.2
892 2 43.2 36.8 4.8
893 4 44.8 35.2 3.2
894 3 46.4 36.8 4.8
895 1 48.0 35.2 3.2
896 3 49.6 36.8 4.8
897 4 0.0 38.4 3.2
898 3 1.6 40.0 4.8
899 1 3.2 38.4 3.2
900 3 4.8 40.0 4.8
901 1 6.4 38.4 3.2
902 2 8.0 40.0 4.8
903 4 9.6 38.4 3.2
904 1 11.2 40.0 4.8
905 3 12.8 38.4 3.2
906 1 14.4 40.0 4.8
907 4 16.0 38.4 3.2
908 1 17.6 40.0 4.8
909 2 19.2 38.4 3.2
910 4 20.8 40.0 4.8
911 2 22.4 38.4 3.2
912 1 24.0 40.0 4.8
913 3 25.6 38.4 3.2
914 1 27.2 40.0 4.8
915 2 28.8 38.4 3.2
916 1 30.4 40.0 4.8
917 3 32.0 38.4 3.2
918 1 33.6 40.0 4.8
919 3 35.2 38.4 3.2
920 1 36.8 40.0 4.8
921 2 38.4 38.4 3.2
922 1 40.0 40.0 4.8
923 2 41.6 38.4 3.2
924 4 43.2 40.0 4.8
925 2 44.8 38.4 3.2
926 2 46.4 40.0 4.8
927 1 48.0 38.4 3.2
928 2 49.6 40.0 4.8
929 2 0.0 41.6 3.2
930 4 1.6 43.2 4.8
931 1 3.2 41.6 3.2
932 4 4.8 43.2 4.8
933 2 6.4 41.6 3.2
934 1 8.0 43.2 4.8
935 3 9.6 41.6 3.2
936 1 11.2 43.2 4.8
937 3 12.8 41.6 3.2
938 1 14.4 43.2 4.8
939 3 16.0 41.6 3.2
940 1 17.6 43.2 4.8
941 3 19.2 41.6 3.2
942 1 20.8 43.2 4.8
943 3 22.4 41.6 3.2
944 4 24.0 43.2 4.8
945 3 25.6 41.6 3.2
946 1 27.2 43.2 4.8
947 2 28.8 41.6 3.2
948 1 30.4 43.2 4.8
949 3 32.0 41.6 3.2
950 1 33.6 43.2 4.8
951 2 35.2 41.6 3.2
952 4 36.8 43.2 4.8
953 3 38.4 41.6 3.2
954 1 40.0 43.2 4.8
955 2 41.6 41.6 3.2
956 1 43.2 43.2 4.8
957 3 44.8 41.6 3.2
958 4 46.4 43.2 4.8
959 2 48.0 41.6 3.2
960 2 49.6 43.2 4.8
961 4 0.0 44.8 3.2
962 4 1.6 46.4 4.8
963 2 3.2 44.8 3.2
964 1 4.8 46.4 4.8
965 2 6.4 44.8 3.2
966 1 8.0 46.4 4.8
967 3 9.6 44.8 3.2
968 1 11.2 46.4 4.8
969 3 12.8 44.8 3.2
970 1 14.4 46.4 4.8
971 3 16.0 44.8 3.2
972 1 17.6 46.4 4.8
973 3 19.2 44.8 3.2
974 4 20.8 46.4 4.8
975 3 22.4 44.8 3.2
976 1 24.0 46.4 4.8
977 3 25.6 44.8 3.2
978 1 27.2 46.4 4.8
979 3 28.8 44.8 3.2
980 1 30.4 46.4 4.8
981 3 32.0 44.8 3.2
982 1 33.6 46.4 4.8
983 3 35.2 44.8 3.2
984 1 36.8 46.4 4.8
985 3 38.4 44.8 3.2
986 1 40.0 46.4 4.8
987 3 41.6 44.8 3.2
988 4 43.2 46.4 4.8
989 3 44.8 44.8 3.2
990 1 46.4 46.4 4.8
991 2 48.0 44.8 3.2
992 4 49.6 46.4 4.8
993 2 0.0 48.0 3.2
994 4 1.6 49.6 4.8
995 2 3.2 48.0 3.2
996 4 4.8 49.6 4.8
997 2 6.4 48.0 3.2
998 1 8.0 49.6 4.8
999 3 9.6 48.0 3.2
1000 1 11.2 49.6 4.8
1001 3 12.8 48.0 3.2
1002 1 14.4 49.6 4.8
1003 2 16.0 48.0 3.2
1004 1 17.6 49.6 4.8
1005 3 19.2 48.0 3.2
1006 1 20.8 49.6 4.8
1007 3 22.4 48.0 3.2
1008 4 24.0 49.6 4.8
1009 3 25.6 48.0 3.2
1010 1 27.2 49.6 4.8
1011 3 28.8 48.0 3.2
1012 1 30.4 49.6 4.8
1013 3 32.0 48.0 3.2
1014 1 33.6 49.6 4.8
1015 3 35.2 48.0 3.2
1016 1 36.8 49.6 4.8
1017 3 38.4 48.0 3.2
1018 1 40.0 49.6 4.8
1019 2 41.6 48.0 3.2
1020 1 43.2 49.6 4.8
1021 3 44.8 48.0 3.2
1022 1 46.4 49.6 4.8
1023 2 48.0 48.0 3.2
1024 1 49.6 49.6 4.8
1025 3 0.0 0.0 6.4
1026 1 1.6 1.6 8.0
1027 3 3.2 0.0 6.4
1028 1 4.8 1.6 8.0
1029 3 6.4 0.0 6.4
1030 1 8.0 1.6 8.0
1031 3 9.6 0.0 6.4
1032 4 11.2 1.6 8.0
1033 3 12.8 0.0 6.4
1034 4 14.4 1.6 8.0
1035 3 16.0 0.0 6.4
1036 1 17.6 1.6 8.0
1037 3 19.2 0.0 6.4
1038 4 20.8 1.6 8.0
1039 3 22.4 0.0 6.4
1040 1 24.0 1.6 8.0
1041 3 25.6 0.0 6.4
1042 4 27.2 1.6 8.0
1043 2 28.8 0.0 6.4
1044 1 30.4 1.6 8.0
1045 3 32.0 0.0 6.4
1046 1 33.6 1.6 8.0
1047 3 35.2 0.0 6.4
1048 1 36.8 1.6 8.0
1049 3 38.4 0.0 6.4
1050 4 40.0 1.6 8.0
1051 3 41.6 0.0 6.4
1052 1 43.2 1.6 8.0
1053 2 44.8 0.0 6.4
1054 1 46.4 1.6 8.0
1055 3 48.0 0.0 6.4
1056 4 49.6 1.6 8.0
1057 3 0.0 3.2 6.4
1058 1 1.6 4.8 8.0
1059 3 3.2 3.2 6.4
1060 1 4.8 4.8 8.0
1061 3 6.4 3.2 6.4
1062 1 8.0 4.8 8.0
1063 2 9.6 3.2 6.4
1064 1 11.2 4.8 8.0
1065 3 12.8 3.2 6.4
1066 1 14.4 4.8 8.0
1067 3 16.0 3.2 6.4
1068 1 17.6 4.8 8.0
1069 3 19.2 3.2 6.4
1070 4 20.8 4.8 8.0
1071 3 22.4 3.2 6.4
1072 4 24.0 4.8 8.0
1073 3 25.6 3.2 6.4
1074 4 27.2 4.8 8.0
1075 2 28.8 3.2 6.4
1076 4 30.4 4.8 8.0
1077 3 32.0 3.2 6.4
1078 1 33.6 4.8 8.0
1079 3 35.2 3.2 6.4
1080 1 36.8 4.8 8.0
1081 2 38.4 3.2 6.4
1082 1 40.0 4.8 8.0
1083 3 41.6 3.2 6.4
1084 4 43.2 4.8 8.0
1085 3 44.8 3.2 6.4
1086 4 46.4 4.8 8.0
1087 3 48.0 3.2 6.4
1088 1 49.6 4.8 8.0
1089 3 0.0 6.4 6.4
1090 1 1.6 8.0 8.0
1091 2 3.2 6.4 6.4
1092 4 4.8 8.0 8.0
1093 3 6.4 6.4 6.4
1094 1 8.0 8.0 8.0
1095 2 9.6 6.4 6.4
1096 4 11.2 8.0 8.0
1097 3 12.8 6.4 6.4
1098 4 14.4 8.0 8.0
1099 2 16.0 6.4 6.4
1100 4 17.6 8.0 8.0
1101 3 19.2 6.4 6.4
1102 1 20.8 8.0 8.0
1103 3 22.4 6.4 6.4
1104 1 24.0 8.0 8.0
1105 3 25.6 6.4 6.4
1106 1 27.2 8.0 8.0
1107 2 28.8 6.4 6.4
1108 4 30.4 8.0 8.0
1109 2 32.0 6.4 6.4
1110 4 33.6 8.0 8.0
1111 3 35.2 6.4 6.4
1112 2 36.8 8.0 8.0
1113 2 38.4 6.4 6.4
1114 4 40.0 8.0 8.0
1115 3 41.6 6.4 6.4
1116 1 43.2 8.0 8.0
1117 3 44.8 6.4 6.4
1118 1 46.4 8.0 8.0
1119 3 48.0 6.4 6.4
1120 1 49.6 8.0 8.0
1121 3 0.0 9.6 6.4
1122 1 1.6 11.2 8.0
1123 2 3.2 9.6 6.4
1124 4 4.8 11.2 8.0
1125 3 6.4 9.6 6.4
1126 1 8.0 11.2 8.0
1127 3 9.6 9.6 6.4
1128 1 11.2 11.2 8.0
1129 3 12.8 9.6 6.4
1130 1 14.4 11.2 8.0
1131 3 16.0 9.6 6.4
1132 1 17.6 11.2 8.0
1133 3 19.2 9.6 6.4
1134 1 20.8 11.2 8.0
1135 3 22.4 9.6 6.4
1136 2 24.0 11.2 8.0
1137 4 25.6 9.6 6.4
1138 2 27.2 11.2 8.0
1139 2 28.8 9.6 6.4
1140 2 30.4 11.2 8.0
1141 2 32.0 9.6 6.4
1142 2 33.6 11.2 8.0
1143 4 35.2 9.6 6.4
1144 2 36.8 11.2 8.0
1145 2 38.4 9.6 6.4
1146 4 40.0 11.2 8.0
1147 3 41.6 9.6 6.4
1148 1 43.2 11.2 8.0
1149 3 44.8 9.6 6.4
1150 1 46.4 11.2 8.0
1151 3 48.0 9.6 6.4
1152 4 49.6 11.2 8.0
1153 2 0.0 12.8 6.4
1154 1 1.6 14.4 8.0
1155 2 3.2 12.8 6.4
1156 1 4.8 14.4 8.0
1157 3 6.4 12.8 6.4
1158 1 8.0 14.4 8.0
1159 3 9.6 12.8 6.4
1160 4 11.2 14.4 8.0
1161 3 12.8 12.8 6.4
1162 2 14.4 14.4 8.0
1163 2 16.0 12.8 6.4
1164 1 17.6 14.4 8.0
1165 3 19.2 12.8 6.4
1166 4 20.8 14.4 8.0
1167 2 22.4 12.8 6.4
1168 2 24.0 14.4 8.0
1169 4 25.6 12.8 6.4
1170 2 27.2 14.4 8.0
1171 2 28.8 12.8 6.4
1172 3 30.4 14.4 8.0
1173 4 32.0 12.8 6.4
1174 2 33.6 14.4 8.0
1175 2 35.2 12.8 6.4
1176 4 36.8 14.4 8.0
1177 2 38.4 12.8 6.4
1178 2 40.0 14.4 8.0
1179 4 41.6 12.8 6.4
1180 4 43.2 14.4 8.0
1181 2 44.8 12.8 6.4
1182 2 46.4 14.4 8.0
1183 2 48.0 12.8 6.4
1184 4 49.6 14.4 8.0
1185 4 0.0 16.0 6.4
1186 2 1.6 17.6 8.0
1187 2 3.2 16.0 6.4
1188 4 4.8 17.6 8.0
1189 4 6.4 16.0 6.4
1190 1 8.0 17.6 8.0
1191 2 9.6 16.0 6.4
1192 1 11.2 17.6 8.0
1193 4 12.8 16.0 6.4
1194 1 14.4 17.6 8.0
1195 2 16.0 16.0 6.4
1196 4 17.6 17.6 8.0
1197 2 19.2 16.0 6.4
1198 4 20.8 17.6 8.0
1199 2 22.4 16.0 6.4
1200 3 24.0 17.6 8.0
1201 4 25.6 16.0 6.4
1202 4 27.2 17.6 8.0
1203 2 28.8 16.0 6.4
1204 2 30.4 17.6 8.0
1205 4 32.0 16.0 6.4
1206 2 33.6 17.6 8.0
1207 4 35.2 16.0 6.4
1208 3 36.8 17.6 8.0
1209 4 38.4 16.0 6.4
1210 3 40.0 17.6 8.0
1211 1 41.6 16.0 6.4
1212 3 43.2 17.6 8.0
1213 4 44.8 16.0 6.4
1214 2 46.4 17.6 8.0
1215 4 48.0 16.0 6.4
1216 2 49.6 17.6 8.0
1217 4 0.0 19.2 6.4
1218 3 1.6 20.8 8.0
1219 4 3.2 19.2 6.4
1220 3 4.8 20.8 8.0
1221 4 6.4 19.2 6.4
1222 2 8.0 20.8 8.0
1223 2 9.6 19.2 6.4
1224 4 11.2 20.8 8.0
1225 3 12.8 19.2 6.4
1226 4 14.4 20.8 8.0
1227 3 16.0 19.2 6.4
1228 4 17.6 20.8 8.0
1229 2 19.2 19.2 6.4
1230 1 20.8 20.8 8.0
1231 2 22.4 19.2 6.4
1232 4 24.0 20.8 8.0
1233 2 25.6 19.2 6.4
1234 4 27.2 20.8 8.0
1235 2 28.8 19.2 6.4
1236 2 30.4 20.8 8.0
1237 2 32.0 19.2 6.4
1238 3 33.6 20.8 8.0
1239 4 35.2 19.2 6.4
1240 3 36.8 20.8 8.0
1241 4 38.4 19.2 6.4
1242 3 40.0 20.8 8.0
1243 1 41.6 19.2 6.4
1244 3 43.2 20.8 8.0
1245 1 44.8 19.2 6.4
1246 3 46.4 20.8 8.0
1247 1 48.0 19.2 6.4
1248 3 49.6 20.8 8.0
1249 1 0.0 22.4 6.4
1250 3 1.6 24.0 8.0
1251 1 3.2 22.4 6.4
1252 3 4.8 24.0 8.0
1253 1 6.4 22.4 6.4
1254 3 8.0 24.0 8.0
1255 1 9.6 22.4 6.4
1256 2 11.2 24.0 8.0
1257 1 12.8 22.4 6.4
1258 1 14.4 24.0 8.0
1259 2 16.0 22.4 6.4
1260 4 17.6 24.0 8.0
1261 2 19.2 22.4 6.4
1262 2 20.8 24.0 8.0
1263 3 22.4 22.4 6.4
1264 4 24.0 24.0 8.0
1265 4 25.6 22.4 6.4
1266 2 27.2 24.0 8.0
1267 4 28.8 22.4 6.4
1268 3 30.4 24.0 8.0
1269 1 32.0 22.4 6.4
1270 3 33.6 24.0 8.0
1271 1 35.2 22.4 6.4
1272 3 36.8 24.0 8.0
1273 4 38.4 22.4 6.4
1274 3 40.0 24.0 8.0
1275 1 41.6 22.4 6.4
1276 3 43.2 24.0 8.0
1277 1 44.8 22.4 6.4
1278 3 46.4 24.0 8.0
1279 1 48.0 22.4 6.4
1280 3 49.6 24.0 8.0
1281 1 0.0 25.6 6.4
1282 3 1.6 27.2 8.0
1283 1 3.2 25.6 6.4
1284 3 4.8 27.2 8.0
1285 1 6.4 25.6 6.4
1286 3 8.0 27.2 8.0
1287 1 9.6 25.6 6.4
1288 2 11.2 27.2 8.0
1289 1 12.8 25.6 6.4
1290 4 14.4 27.2 8.0
1291 2 16.0 25.6 6.4
1292 2 17.6 27.2 8.0
1293 4 19.2 25.6 6.4
1294 2 20.8 27.2 8.0
1295 1 22.4 25.6 6.4
1296 4 24.0 27.2 8.0
1297 4 25.6 25.6 6.4
1298 2 27.2 27.2 8.0
1299 1 28.8 25.6 6.4
1300 2 30.4 27.2 8.0
1301 1 32.0 25.6 6.4
1302 2 33.6 27.2 8.0
1303 1 35.2 25.6 6.4
1304 3 36.8 27.2 8.0
1305 1 38.4 25.6 6.4
1306 3 40.0 27.2 8.0
1307 1 41.6 25.6 6.4
1308 2 43.2 27.2 8.0
1309 1 44.8 25.6 6.4
1310 3 46.4 27.2 8.0
1311 1 48.0 25.6 6.4
1312 3 49.6 27.2 8.0
1313 1 0.0 28.8 6.4
1314 3 1.6 30.4 8.0
1315 4 3.2 28.8 6.4
1316 3 4.8 30.4 8.0
1317 1 6.4 28.8 6.4
1318 3 8.0 30.4 8.0
1319 1 9.6 28.8 6.4
1320 2 11.2 30.4 8.0
1321 4 12.8 28.8 6.4
1322 3 14.4 30.4 8.0
1323 1 16.0 28.8 6.4
1324 2 17.6 30.4 8.0
1325 4 19.2 28.8 6.4
1326 3 20.8 30.4 8.0
1327 1 22.4 28.8 6.4
1328 3 24.0 30.4 8.0
1329 4 25.6 28.8 6.4
1330 2 27.2 30.4 8.0
1331 2 28.8 28.8 6.4
1332 1 30.4 30.4 8.0
1333 2 32.0 28.8 6.4
1334 4 33.6 30.4 8.0
1335 4 35.2 28.8 6.4
1336 2 36.8 30.4 8.0
1337 2 38.4 28.8 6.4
1338 2 40.0 30.4 8.0
1339 4 41.6 28.8 6.4
1340 3 43.2 30.4 8.0
1341 4 44.8 28.8 6.4
1342 2 46.4 30.4 8.0
1343 1 48.0 28.8 6.4
1344 3 49.6 30.4 8.0
1345 1 0.0 32.0 6.4
1346 3 1.6 33.6 8.0
1347 1 3.2 32.0 6.4
1348 3 4.8 33.6 8.0
1349 4 6.4 32.0 6.4
1350 3 8.0 33.6 8.0
1351 1 9.6 32.0 6.4
1352 2 11.2 33.6 8.0
1353 1 12.8 32.0 6.4
1354 2 14.4 33.6 8.0
1355 4 16.0 32.0 6.4
1356 2 17.6 33.6 8.0
1357 1 19.2 32.0 6.4
1358 3 20.8 33.6 8.0
1359 1 22.4 32.0 6.4
1360 3 24.0 33.6 8.0
1361 4 25.6 32.0 6.4
1362 3 27.2 33.6 8.0
1363 1 28.8 32.0 6.4
1364 2 30.4 33.6 8.0
1365 4 32.0 32.0 6.4
1366 3 33.6 33.6 8.0
1367 1 35.2 32.0 6.4
1368 2 36.8 33.6 8.0
1369 4 38.4 32.0 6.4
1370 3 40.0 33.6 8.0
1371 2 41.6 32.0 6.4
1372 3 43.2 33.6 8.0
1373 1 44.8 32.0 6.4
1374 3 46.4 33.6 8.0
1375 1 48.0 32.0 6.4
1376 3 49.6 33.6 8.0
1377 1 0.0 35.2 6.4
1378 3 1.6 36.8 8.0
1379 1 3.2 35.2 6.4
1380 3 4.8 36.8 8.0
1381 1 6.4 35.2 6.4
1382 2 8.0 36.8 8.0
1383 1 9.6 35.2 6.4
1384 2 11.2 36.8 8.0
1385 4 12.8 35.2 6.4
1386 2 14.4 36.8 8.0
1387 4 16.0 35.2 6.4
1388 2 17.6 36.8 8.0
1389 1 19.2 35.2 6.4
1390 2 20.8 36.8 8.0
1391 1 22.4 35.2 6.4
1392 4 24.0 36.8 8.0
1393 4 25.6 35.2 6.4
1394 2 27.2 36.8 8.0
1395 4 28.8 35.2 6.4
1396 4 30.4 36.8 8.0
1397 4 32.0 35.2 6.4
1398 4 33.6 36.8 8.0
1399 2 35.2 35.2 6.4
1400 4 36.8 36.8 8.0
1401 2 38.4 35.2 6.4
1402 2 40.0 36.8 8.0
1403 4 41.6 35.2 6.4
1404 3 43.2 36.8 8.0
1405 1 44.8 35.2 6.4
1406 2 46.4 36.8 8.0
1407 1 48.0 35.2 6.4
1408 3 49.6 36.8 8.0
1409 1 0.0 38.4 6.4
1410 2 1.6 40.0 8.0
1411 1 3.2 38.4 6.4
1412 3 4.8 40.0 8.0
1413 4 6.4 38.4 6.4
1414 2 8.0 40.0 8.0
1415 4 9.6 38.4 6.4
1416 4 11.2 40.0 8.0
1417 2 12.8 38.4 6.4
1418 4 14.4 40.0 8.0
1419 2 16.0 38.4 6.4
1420 2 17.6 40.0 8.0
1421 4 19.2 38.4 6.4
1422 4 20.8 40.0 8.0
1423 2 22.4 38.4 6.4
1424 1 24.0 40.0 8.0
1425 2 25.6 38.4 6.4
1426 4 27.2 40.0 8.0
1427 2 28.8 38.4 6.4
1428 1 30.4 40.0 8.0
1429 2 32.0 38.4 6.4
1430 1 33.6 40.0 8.0
1431 3 35.2 38.4 6.4
1432 1 36.8 40.0 8.0
1433 2 38.4 38.4 6.4
1434 2 40.0 40.0 8.0
1435 4 41.6 38.4 6.4
1436 2 43.2 40.0 8.0
1437 1 44.8 38.4 6.4
1438 2 46.4 40.0 8.0
1439 1 48.0 38.4 6.4
1440 2 49.6 40.0 8.0
1441 2 0.0 41.6 6.4
1442 2 1.6 43.2 8.0
1443 4 3.2 41.6 6.4
1444 2 4.8 43.2 8.0
1445 2 6.4 41.6 6.4
1446 2 8.0 43.2 8.0
1447 2 9.6 41.6 6.4
1448 4 11.2 43.2 8.0
1449 2 12.8 41.6 6.4
1450 1 14.4 43.2 8.0
1451 2 16.0 41.6 6.4
1452 4 17.6 43.2 8.0
1453 3 19.2 41.6 6.4
1454 1 20.8 43.2 8.0
1455 3 22.4 41.6 6.4
1456 1 24.0 43.2 8.0
1457 3 25.6 41.6 6.4
1458 1 27.2 43.2 8.0
1459 3 28.8 41.6 6.4
1460 1 30.4 43.2 8.0
1461 3 32.0 41.6 6.4
1462 1 33.6 43.2 8.0
1463 3 35.2 41.6 6.4
1464 4 36.8 43.2 8.0
1465 2 38.4 41.6 6.4
1466 1 40.0 43.2 8.0
1467 2 41.6 41.6 6.4
1468 4 43.2 43.2 8.0
1469 2 44.8 41.6 6.4
1470 2 46.4 43.2 8.0
1471 4 48.0 41.6 6.4
1472 2 49.6 43.2 8.0
1473 3 0.0 44.8 6.4
1474 4 1.6 46.4 8.0
1475 2 3.2 44.8 6.4
1476 2 4.8 46.4 8.0
1477 2 6.4 44.8 6.4
1478 4 8.0 46.4 8.0
1479 3 9.6 44.8 6.4
1480 2 11.2 46.4 8.0
1481 3 12.8 44.8 6.4
1482 4 14.4 46.4 8.0
1483 3 16.0 44.8 6.4
1484 1 17.6 46.4 8.0
1485 3 19.2 44.8 6.4
1486 1 20.8 46.4 8.0
1487 3 22.4 44.8 6.4
1488 1 24.0 46.4 8.0
1489 3 25.6 44.8 6.4
1490 1 27.2 46.4 8.0
1491 3 28.8 44.8 6.4
1492 1 30.4 46.4 8.0
1493 3 32.0 44.8 6.4
1494 2 33.6 46.4 8.0
1495 3 35.2 44.8 6.4
1496 4 36.8 46.4 8.0
1497 3 38.4 44.8 6.4
1498 1 40.0 46.4 8.0
1499 3 41.6 44.8 6.4
1500 1 43.2 46.4 8.0