ITEM: TIMESTEP
0
ITEM: NUMBER OF ATOMS
8192
ITEM: BOX BOUNDS pp pp pp
0.0000000000000000e+00 5.1200000000000003e+01
0.0000000000000000e+00 5.1200000000000003e+01
0.0000000000000000e+00 5.1200000000000003e+01
ITEM: ATOMS id type x y z c_eng
1 3 0 0 0 -11.2039
2 1 1.6 1.6 1.6 -11.8415
3 3 3.2 0 0 -11.2374
4 1 4.8 1.6 1.6 -11.8556
5 3 6.4 0 0 -11.2362
6 1 8 1.6 1.6 -11.8555
7 3 9.6 0 0 -11.2758
8 1 11.2 1.6 1.6 -11.8557
9 3 12.8 0 0 -11.2753
10 1 14.4 1.6 1.6 -11.8556
11 3 16 0 0 -11.307
12 4 17.6 1.6 1.6 -13.3311
13 3 19.2 0 0 -11.3076
14 1 20.8 1.6 1.6 -11.7557
15 3 22.4 0 0 -11.2378
16 1 24 1.6 1.6 -11.7941
17 3 25.6 0 0 -11.2756
18 1 27.2 1.6 1.6 -11.8556
19 3 28.8 0 0 -11.2753
20 4 30.4 1.6 1.6 -13.3645
21 3 32 0 0 -11.2753
22 1 33.6 1.6 1.6 -11.8556
23 3 35.2 0 0 -11.2753
24 1 36.8 1.6 1.6 -11.8558
25 3 38.4 0 0 -11.2756
26 1 40 1.6 1.6 -11.8414
27 3 41.6 0 0 -11.2761
28 1 43.2 1.6 1.6 -11.8439
29 3 44.8 0 0 -11.2758
30 1 46.4 1.6 1.6 -11.8122
31 3 48 0 0 -11.242
32 1 49.6 1.6 1.6 -11.8417
33 3 0 3.2 0 -11.2414
34 1 1.6 4.8 1.6 -11.8416
35 3 3.2 3.2 0 -11.2414
36 1 4.8 4.8 1.6 -11.8416
37 3 6.4 3.2 0 -11.2417
38 1 8 4.8 1.6 -11.8557
39 3 9.6 3.2 0 -11.2414
40 1 11.2 4.8 1.6 -11.8414
41 3 12.8 3.2 0 -11.2414
42 1 14.4 4.8 1.6 -11.8414
43 3 16 3.2 0 -11.2759
44 1 17.6 4.8 1.6 -11.7983
45 3 19.2 3.2 0 -11.2354
46 1 20.8 4.8 1.6 -11.7483
47 3 22.4 3.2 0 -11.2721
48 1 24 4.8 1.6 -11.8117
49 3 25.6 3.2 0 -11.2756
50 1 27.2 4.8 1.6 -11.8436
51 3 28.8 3.2 0 -11.2756
52 1 30.4 4.8 1.6 -11.8291
53 3 32 3.2 0 -11.2756
54 1 33.6 4.8 1.6 -11.7985
55 3 35.2 3.2 0 -11.2758
56 1 36.8 4.8 1.6 -11.7807
57 3 38.4 3.2 0 -11.2758
58 1 40 4.8 1.6 -11.826
59 3 41.6 3.2 0 -11.2384
60 4 43.2 4.8 1.6 -13.3394
61 3 44.8 3.2 0 -11.2014
62 1 46.4 4.8 1.6 -11.8282
63 3 48 3.2 0 -11.242
64 1 49.6 4.8 1.6 -11.8558
65 3 0 6.4 0 -11.2017
66 1 1.6 8 1.6 -11.7662
67 3 3.2 6.4 0 -11.242
68 1 4.8 8 1.6 -11.8415
69 3 6.4 6.4 0 -11.2417
70 1 8 8 1.6 -11.812
71 3 9.6 6.4 0 -11.2394
72 1 11.2 8 1.6 -11.8122
73 3 12.8 6.4 0 -11.2397
74 1 14.4 8 1.6 -11.8257
75 3 16 6.4 0 -11.2764
76 4 17.6 8 1.6 -13.3805
77 3 19.2 6.4 0 -11.2729
78 1 20.8 8 1.6 -11.8278
79 3 22.4 6.4 0 -11.3094
80 1 24 8 1.6 -11.8136
81 3 25.6 6.4 0 -11.2748
82 4 27.2 8 1.6 -13.3282
83 3 28.8 6.4 0 -11.2737
84 4 30.4 8 1.6 -13.2967
85 3 32 6.4 0 -11.2408
86 1 33.6 8 1.6 -11.7531
87 3 35.2 6.4 0 -11.1661
88 1 36.8 8 1.6 -11.7701
89 3 38.4 6.4 0 -11.239
90 1 40 8 1.6 -11.8089
91 3 41.6 6.4 0 -11.3052
92 1 43.2 8 1.6 -11.8696
93 3 44.8 6.4 0 -11.3094
94 1 46.4 8 1.6 -11.8553
95 3 48 6.4 0 -11.2759
96 4 49.6 8 1.6 -13.3354
97 4 0 9.6 0 -13.2082
98 1 1.6 11.2 1.6 -11.6349
99 3 3.2 9.6 0 -11.1594
100 1 4.8 11.2 1.6 -11.7688
101 3 6.4 9.6 0 -11.2362
102 1 8 11.2 1.6 -11.7862
103 2 9.6 9.6 0 -9.80734
104 1 11.2 11.2 1.6 -11.7894
105 2 12.8 9.6 0 -9.7526
106 1 14.4 11.2 1.6 -11.7649
107 3 16 9.6 0 -11.1879
108 4 17.6 11.2 1.6 -13.3805
109 3 19.2 9.6 0 -11.3035
110 1 20.8 11.2 1.6 -11.8553
111 3 22.4 9.6 0 -11.2732
112 1 24 11.2 1.6 -11.7726
113 2 25.6 9.6 0 -9.84096
114 4 27.2 11.2 1.6 -13.3427
115 3 28.8 9.6 0 -11.2899
116 4 30.4 11.2 1.6 -13.3713
117 3 32 9.6 0 -11.2977
118 4 33.6 11.2 1.6 -13.3472
119 3 35.2 9.6 0 -11.2359
120 1 36.8 11.2 1.6 -11.7583
121 3 38.4 9.6 0 -11.2327
122 4 40 11.2 1.6 -13.3006
123 3 41.6 9.6 0 -11.3355
124 1 43.2 11.2 1.6 -11.7237
125 3 44.8 9.6 0 -11.2739
126 1 46.4 11.2 1.6 -11.756
127 3 48 9.6 0 -11.3002
128 2 49.6 11.2 1.6 -9.76851
129 4 0 12.8 0 -13.2115
130 2 1.6 14.4 1.6 -9.7944
131 4 3.2 12.8 0 -13.2458
132 4 4.8 14.4 1.6 -13.2318
133 2 6.4 12.8 0 -9.76346
134 4 8 14.4 1.6 -13.3377
135 2 9.6 12.8 0 -9.84217
136 2 11.2 14.4 1.6 -9.82117
137 2 12.8 12.8 0 -9.75662
138 1 14.4 14.4 1.6 -11.7177
139 2 16 12.8 0 -9.78276
140 1 17.6 14.4 1.6 -11.7996
141 3 19.2 12.8 0 -11.3027
142 1 20.8 14.4 1.6 -11.843
143 3 22.4 12.8 0 -11.2702
144 1 24 14.4 1.6 -11.708
145 2 25.6 12.8 0 -9.72806
146 1 27.2 14.4 1.6 -11.6392
147 3 28.8 12.8 0 -11.2611
148 1 30.4 14.4 1.6 -11.7355
149 3 32 12.8 0 -11.3583
150 4 33.6 14.4 1.6 -13.2897
151 3 35.2 12.8 0 -11.2593
152 4 36.8 14.4 1.6 -13.2008
153 2 38.4 12.8 0 -9.79022
154 2 40 14.4 1.6 -9.81771
155 2 41.6 12.8 0 -9.76233
156 4 43.2 14.4 1.6 -13.2531
157 2 44.8 12.8 0 -9.78724
158 4 46.4 14.4 1.6 -13.3133
159 2 48 12.8 0 -9.7944
160 2 49.6 14.4 1.6 -9.7666
161 4 0 16 0 -13.2783
162 2 1.6 17.6 1.6 -9.78627
163 2 3.2 16 0 -9.77731
164 4 4.8 17.6 1.6 -13.2606
165 1 6.4 16 0 -11.7086
166 3 8 17.6 1.6 -11.2205
167 1 9.6 16 0 -11.7297
168 3 11.2 17.6 1.6 -11.2845
169 4 12.8 16 0 -13.2636
170 4 14.4 17.6 1.6 -13.2556
171 2 16 16 0 -9.78745
172 4 17.6 17.6 1.6 -13.2657
173 3 19.2 16 0 -11.2549
174 4 20.8 17.6 1.6 -13.3895
175 2 22.4 16 0 -9.81586
176 4 24 17.6 1.6 -13.3034
177 4 25.6 16 0 -13.1663
178 2 27.2 17.6 1.6 -9.76364
179 2 28.8 16 0 -9.77545
180 3 30.4 17.6 1.6 -11.3074
181 2 32 16 0 -9.8394
182 2 33.6 17.6 1.6 -9.78825
183 4 35.2 16 0 -13.2244
184 2 36.8 17.6 1.6 -9.75747
185 2 38.4 16 0 -9.80928
186 2 40 17.6 1.6 -9.78763
187 4 41.6 16 0 -13.2814
188 2 43.2 17.6 1.6 -9.79133
189 2 44.8 16 0 -9.81848
190 2 46.4 17.6 1.6 -9.78393
191 4 48 16 0 -13.2894
192 2 49.6 17.6 1.6 -9.72738
193 1 0 19.2 0 -11.7849
194 3 1.6 20.8 1.6 -11.2402
195 4 3.2 19.2 0 -13.3074
196 3 4.8 20.8 1.6 -11.2361
197 1 6.4 19.2 0 -11.7709
198 2 8 20.8 1.6 -9.8628
199 1 9.6 19.2 0 -11.8263
200 3 11.2 20.8 1.6 -11.2591
201 4 12.8 19.2 0 -13.2998
202 4 14.4 20.8 1.6 -13.3165
203 2 16 19.2 0 -9.83925
204 2 17.6 20.8 1.6 -9.84066
205 4 19.2 19.2 0 -13.3494
206 3 20.8 20.8 1.6 -11.4038
207 4 22.4 19.2 0 -13.3797
208 3 24 20.8 1.6 -11.3396
209 4 25.6 19.2 0 -13.251
210 2 27.2 20.8 1.6 -9.82112
211 4 28.8 19.2 0 -13.3416
212 2 30.4 20.8 1.6 -9.84062
213 4 32 19.2 0 -13.3456
214 3 33.6 20.8 1.6 -11.2303
215 4 35.2 19.2 0 -13.3487
216 3 36.8 20.8 1.6 -11.3016
217 4 38.4 19.2 0 -13.3687
218 2 40 20.8 1.6 -9.83499
219 4 41.6 19.2 0 -13.3129
220 3 43.2 20.8 1.6 -11.2662
221 4 44.8 19.2 0 -13.2689
222 2 46.4 20.8 1.6 -9.77508
223 1 48 19.2 0 -11.6981
224 3 49.6 20.8 1.6 -11.1251
225 1 0 22.4 0 -11.781
226 3 1.6 24 1.6 -11.2039
227 1 3.2 22.4 0 -11.8698
228 3 4.8 24 1.6 -11.3089
229 4 6.4 22.4 0 -13.3389
230 3 8 24 1.6 -11.234
231 1 9.6 22.4 0 -11.8155
232 2 11.2 24 1.6 -9.74266
233 4 12.8 22.4 0 -13.2488
234 2 14.4 24 1.6 -9.66759
235 2 16 22.4 0 -9.80871
236 4 17.6 24 1.6 -13.158
237 4 19.2 22.4 0 -13.3232
238 3 20.8 24 1.6 -11.2564
239 1 22.4 22.4 0 -11.8255
240 3 24 24 1.6 -11.3554
241 4 25.6 22.4 0 -13.3419
242 2 27.2 24 1.6 -9.84163
243 4 28.8 22.4 0 -13.2866
244 2 30.4 24 1.6 -9.81757
245 4 32 22.4 0 -13.3729
246 3 33.6 24 1.6 -11.1954
247 1 35.2 22.4 0 -11.8974
248 3 36.8 24 1.6 -11.2991
249 4 38.4 22.4 0 -13.4251
250 3 40 24 1.6 -11.3327
251 4 41.6 22.4 0 -13.3799
252 3 43.2 24 1.6 -11.2717
253 1 44.8 22.4 0 -11.8415
254 3 46.4 24 1.6 -11.1642
255 1 48 22.4 0 -11.753
256 2 49.6 24 1.6 -9.70671
257 1 0 25.6 0 -11.7682
259 1 3.2 25.6 0 -11.8121
261 1 6.4 25.6 0 -11.8698
263 1 9.6 25.6 0 -11.8119
265 1 12.8 25.6 0 -11.7744
267 4 16 25.6 0 -13.2456
269 1 19.2 25.6 0 -11.741
271 4 22.4 25.6 0 -13.3497
273 4 25.6 25.6 0 -13.2978
275 1 28.8 25.6 0 -11.7175
277 1 32 25.6 0 -11.7837
279 4 35.2 25.6 0 -13.3317
281 4 38.4 25.6 0 -13.3452
283 4 41.6 25.6 0 -13.3786
285 1 44.8 25.6 0 -11.8278
287 1 48 25.6 0 -11.7809
258 3 1.6 27.2 1.6 -11.24
289 4 0 28.8 0 -13.3586
260 3 4.8 27.2 1.6 -11.2378
291 1 3.2 28.8 0 -11.7984
262 3 8 27.2 1.6 -11.3091
293 1 6.4 28.8 0 -11.8122
264 3 11.2 27.2 1.6 -11.2381
295 1 9.6 28.8 0 -11.8558
266 3 14.4 27.2 1.6 -11.1639
297 1 12.8 28.8 0 -11.812
268 2 17.6 27.2 1.6 -9.68359
299 1 16 28.8 0 -11.8154
270 3 20.8 27.2 1.6 -11.2336
301 1 19.2 28.8 0 -11.8257
272 3 24 27.2 1.6 -11.3035
303 1 22.4 28.8 0 -11.8555
305 1 25.6 28.8 0 -11.7961
274 2 27.2 27.2 1.6 -9.75551
307 1 28.8 28.8 0 -11.695
276 2 30.4 27.2 1.6 -9.69285
309 1 32 28.8 0 -11.7212
278 2 33.6 27.2 1.6 -9.8178
311 4 35.2 28.8 0 -13.2724
280 2 36.8 27.2 1.6 -9.79186
313 4 38.4 28.8 0 -13.3183
282 3 40 27.2 1.6 -11.261
315 4 41.6 28.8 0 -13.2907
284 2 43.2 27.2 1.6 -9.78241
317 1 44.8 28.8 0 -11.7391
286 3 46.4 27.2 1.6 -11.2359
319 1 48 28.8 0 -11.8415
288 3 49.6 27.2 1.6 -11.2721
290 3 1.6 30.4 1.6 -11.231
321 4 0 32 0 -13.3575
292 2 4.8 30.4 1.6 -9.73522
323 1 3.2 32 0 -11.8396
294 3 8 30.4 1.6 -11.1985
325 1 6.4 32 0 -11.7525
296 3 11.2 30.4 1.6 -11.2378
327 1 9.6 32 0 -11.7986
298 2 14.4 30.4 1.6 -9.80012
329 1 12.8 32 0 -11.8278
300 3 17.6 30.4 1.6 -11.1897
331 4 16 32 0 -13.3825
302 3 20.8 30.4 1.6 -11.274
333 4 19.2 32 0 -13.36
304 3 24 30.4 1.6 -11.2023
335 1 22.4 32 0 -11.7959
337 1 25.6 32 0 -11.8304
306 2 27.2 30.4 1.6 -9.71938
339 1 28.8 32 0 -11.7209
308 2 30.4 30.4 1.6 -9.65696
341 1 32 32 0 -11.7228
310 3 33.6 30.4 1.6 -11.1548
343 1 35.2 32 0 -11.7434
312 2 36.8 30.4 1.6 -9.79087
345 4 38.4 32 0 -13.2564
314 3 40 30.4 1.6 -11.175
347 4 41.6 32 0 -13.2658
316 4 43.2 30.4 1.6 -13.1925
349 1 44.8 32 0 -11.7092
318 2 46.4 30.4 1.6 -9.77871
351 1 48 32 0 -11.7725
320 3 49.6 30.4 1.6 -11.267
322 3 1.6 33.6 1.6 -11.3085
353 1 0 35.2 0 -11.855
324 3 4.8 33.6 1.6 -11.1982
355 4 3.2 35.2 0 -13.3367
326 2 8 33.6 1.6 -9.77529
357 1 6.4 35.2 0 -11.8313
328 3 11.2 33.6 1.6 -11.2384
359 4 9.6 35.2 0 -13.3247
330 3 14.4 33.6 1.6 -11.2273
361 1 12.8 35.2 0 -11.8054
332 4 17.6 33.6 1.6 -13.3079
363 4 16 35.2 0 -13.2689
334 2 20.8 33.6 1.6 -9.75677
365 4 19.2 35.2 0 -13.2945
336 2 24 33.6 1.6 -9.7512
367 1 22.4 35.2 0 -11.7198
369 2 25.6 35.2 0 -9.78075
338 3 27.2 33.6 1.6 -11.2629
371 4 28.8 35.2 0 -13.3068
340 2 30.4 33.6 1.6 -9.7807
373 4 32 35.2 0 -13.3333
342 2 33.6 33.6 1.6 -9.76183
375 2 35.2 35.2 0 -9.86252
344 4 36.8 33.6 1.6 -13.2017
377 3 38.4 35.2 0 -11.268
346 2 40 33.6 1.6 -9.84069
379 4 41.6 35.2 0 -13.347
348 3 43.2 33.6 1.6 -11.3141
381 4 44.8 35.2 0 -13.3246
350 3 46.4 33.6 1.6 -11.1893
383 1 48 35.2 0 -11.7703
352 2 49.6 33.6 1.6 -9.74727
354 3 1.6 36.8 1.6 -11.2663
385 4 0 38.4 0 -13.2337
356 2 4.8 36.8 1.6 -9.83746
387 1 3.2 38.4 0 -11.8041
358 3 8 36.8 1.6 -11.2581
389 4 6.4 38.4 0 -13.3016
360 2 11.2 36.8 1.6 -9.86878
391 4 9.6 38.4 0 -13.3553
362 4 14.4 36.8 1.6 -13.2552
393 2 12.8 38.4 0 -9.8343
364 2 17.6 36.8 1.6 -9.76479
395 4 16 38.4 0 -13.2749
366 2 20.8 36.8 1.6 -9.7881
397 2 19.2 38.4 0 -9.87668
368 4 24 36.8 1.6 -13.2219
399 2 22.4 38.4 0 -9.80698
401 4 25.6 38.4 0 -13.2535
370 2 27.2 36.8 1.6 -9.84538
403 4 28.8 38.4 0 -13.2551
372 2 30.4 36.8 1.6 -9.79716
405 3 32 38.4 0 -11.2319
374 1 33.6 36.8 1.6 -11.8095
407 3 35.2 38.4 0 -11.2348
376 4 36.8 36.8 1.6 -13.3509
409 2 38.4 38.4 0 -9.89017
378 4 40 36.8 1.6 -13.4083
411 3 41.6 38.4 0 -11.3164
380 2 43.2 36.8 1.6 -9.89849
413 2 44.8 38.4 0 -9.863
382 2 46.4 36.8 1.6 -9.84251
415 4 48 38.4 0 -13.2234
384 2 49.6 36.8 1.6 -9.78896
386 2 1.6 40 1.6 -9.79411
417 4 0 41.6 0 -13.2029
388 2 4.8 40 1.6 -9.84495
419 2 3.2 41.6 0 -9.83465
390 4 8 40 1.6 -13.3519
421 4 6.4 41.6 0 -13.3144
392 4 11.2 40 1.6 -13.3524
423 3 9.6 41.6 0 -11.2921
394 4 14.4 40 1.6 -13.2963
425 3 12.8 41.6 0 -11.2585
396 4 17.6 40 1.6 -13.339
427 2 16 41.6 0 -9.87143
398 4 20.8 40 1.6 -13.3518
429 3 19.2 41.6 0 -11.3078
400 4 24 40 1.6 -13.2783
431 4 22.4 41.6 0 -13.3138
433 2 25.6 41.6 0 -9.75917
402 1 27.2 40 1.6 -11.7309
435 3 28.8 41.6 0 -11.2314
404 1 30.4 40 1.6 -11.7998
437 3 32 41.6 0 -11.2737
406 1 33.6 40 1.6 -11.8277
439 3 35.2 41.6 0 -11.1664
408 1 36.8 40 1.6 -11.7842
441 3 38.4 41.6 0 -11.1988
410 4 40 40 1.6 -13.3783
443 3 41.6 41.6 0 -11.2984
412 4 43.2 40 1.6 -13.3668
445 2 44.8 41.6 0 -9.78115
414 1 46.4 40 1.6 -11.6945
447 2 48 41.6 0 -9.66763
416 4 49.6 40 1.6 -13.1394
418 4 1.6 43.2 1.6 -13.3096
449 2 0 44.8 0 -9.8232
420 2 4.8 43.2 1.6 -9.86045
451 2 3.2 44.8 0 -9.88181
422 4 8 43.2 1.6 -13.3498
453 4 6.4 44.8 0 -13.309
424 1 11.2 43.2 1.6 -11.8408
455 3 9.6 44.8 0 -11.3047
426 1 14.4 43.2 1.6 -11.8035
457 3 12.8 44.8 0 -11.2384
428 4 17.6 43.2 1.6 -13.3279
459 2 16 44.8 0 -9.75222
430 1 20.8 43.2 1.6 -11.8034
461 2 19.2 44.8 0 -9.81113
432 1 24 43.2 1.6 -11.7853
463 3 22.4 44.8 0 -11.2322
465 3 25.6 44.8 0 -11.24
434 1 27.2 43.2 1.6 -11.812
467 3 28.8 44.8 0 -11.2756
436 1 30.4 43.2 1.6 -11.8556
469 3 32 44.8 0 -11.3081
438 1 33.6 43.2 1.6 -11.8258
471 3 35.2 44.8 0 -11.2761
440 1 36.8 43.2 1.6 -11.7986
473 3 38.4 44.8 0 -11.1645
442 1 40 43.2 1.6 -11.8133
475 2 41.6 44.8 0 -9.76921
444 4 43.2 43.2 1.6 -13.3344
477 3 44.8 44.8 0 -11.2361
446 1 46.4 43.2 1.6 -11.7839
479 3 48 44.8 0 -11.267
448 4 49.6 43.2 1.6 -13.2576
450 2 1.6 46.4 1.6 -9.81013
481 2 0 48 0 -9.75119
452 2 4.8 46.4 1.6 -9.86926
483 4 3.2 48 0 -13.309
454 4 8 46.4 1.6 -13.3288
485 2 6.4 48 0 -9.78885
456 1 11.2 46.4 1.6 -11.8835
487 3 9.6 48 0 -11.3068
458 1 14.4 46.4 1.6 -11.784
489 3 12.8 48 0 -11.3094
460 1 17.6 46.4 1.6 -11.7854
491 3 16 48 0 -11.2005
462 1 20.8 46.4 1.6 -11.842
493 3 19.2 48 0 -11.2729
464 1 24 46.4 1.6 -11.8413
495 3 22.4 48 0 -11.2759
497 3 25.6 48 0 -11.2414
466 1 27.2 46.4 1.6 -11.8417
499 3 28.8 48 0 -11.2414
468 1 30.4 46.4 1.6 -11.8556
501 3 32 48 0 -11.2753
470 4 33.6 46.4 1.6 -13.3656
503 3 35.2 48 0 -11.2756
472 1 36.8 46.4 1.6 -11.8557
505 3 38.4 48 0 -11.2045
474 1 40 46.4 1.6 -11.7844
507 3 41.6 48 0 -11.1605
476 1 43.2 46.4 1.6 -11.8281
509 3 44.8 48 0 -11.3089
478 4 46.4 46.4 1.6 -13.3344
511 3 48 48 0 -11.2357
480 4 49.6 46.4 1.6 -13.2997
482 1 1.6 49.6 1.6 -11.8121
484 4 4.8 49.6 1.6 -13.3383
486 1 8 49.6 1.6 -11.829
488 4 11.2 49.6 1.6 -13.3645
490 1 14.4 49.6 1.6 -11.8423
492 4 17.6 49.6 1.6 -13.3591
494 1 20.8 49.6 1.6 -11.8256
496 1 24 49.6 1.6 -11.8282
498 1 27.2 49.6 1.6 -11.8414
500 1 30.4 49.6 1.6 -11.8697
502 1 33.6 49.6 1.6 -11.8556
504 1 36.8 49.6 1.6 -11.8415
506 1 40 49.6 1.6 -11.8123
508 1 43.2 49.6 1.6 -11.8258
510 1 46.4 49.6 1.6 -11.8281
512 1 49.6 49.6 1.6 -11.8018
513 3 0 0 3.2 -11.2759
514 1 1.6 1.6 4.8 -11.8558
515 3 3.2 0 3.2 -11.3097
516 1 4.8 1.6 4.8 -11.8554
517 3 6.4 0 3.2 -11.2726
518 4 8 1.6 4.8 -13.385
519 3 9.6 0 3.2 -11.3084
520 1 11.2 1.6 4.8 -11.8554
521 3 12.8 0 3.2 -11.2759
522 1 14.4 1.6 4.8 -11.8555
523 3 16 0 3.2 -11.2717
524 1 17.6 1.6 4.8 -11.8319
525 3 19.2 0 3.2 -11.2317
526 4 20.8 1.6 4.8 -13.2949
527 2 22.4 0 3.2 -9.77518
528 1 24 1.6 4.8 -11.8135
529 3 25.6 0 3.2 -11.2397
530 1 27.2 1.6 4.8 -11.8133
531 3 28.8 0 3.2 -11.2731
532 1 30.4 1.6 4.8 -11.8424
533 3 32 0 3.2 -11.3091
534 1 33.6 1.6 4.8 -11.8554
535 3 35.2 0 3.2 -11.2414
536 1 36.8 1.6 4.8 -11.8121
537 3 38.4 0 3.2 -11.242
538 1 40 1.6 4.8 -11.8418
539 3 41.6 0 3.2 -11.2381
540 4 43.2 1.6 4.8 -13.2479
541 3 44.8 0 3.2 -11.2029
542 1 46.4 1.6 4.8 -11.755
543 3 48 0 3.2 -11.2042
544 1 49.6 1.6 4.8 -11.8415
545 3 0 3.2 3.2 -11.2414
546 1 1.6 4.8 4.8 -11.8417
547 3 3.2 3.2 3.2 -11.2414
548 1 4.8 4.8 4.8 -11.8556
549 3 6.4 3.2 3.2 -11.3068
550 4 8 4.8 4.8 -13.3316
551 3 9.6 3.2 3.2 -11.3073
552 1 11.2 4.8 4.8 -11.8151
553 3 12.8 3.2 3.2 -11.2414
554 1 14.4 4.8 4.8 -11.8555
555 3 16 3.2 3.2 -11.2389
556 4 17.6 4.8 4.8 -13.3278
557 4 19.2 3.2 3.2 -13.1966
558 4 20.8 4.8 4.8 -13.3191
559 2 22.4 3.2 3.2 -9.71855
560 1 24 4.8 4.8 -11.8553
561 3 25.6 3.2 3.2 -11.2384
562 4 27.2 4.8 4.8 -13.3578
563 3 28.8 3.2 3.2 -11.2701
564 4 30.4 4.8 4.8 -13.3255
565 3 32 3.2 3.2 -11.3055
566 4 33.6 4.8 4.8 -13.3315
567 3 35.2 3.2 3.2 -11.24
568 1 36.8 4.8 4.8 -11.754
569 3 38.4 3.2 3.2 -11.1642
570 1 40 4.8 4.8 -11.7676
571 3 41.6 3.2 3.2 -11.2753
572 1 43.2 4.8 4.8 -11.7985
573 2 44.8 3.2 3.2 -9.74733
574 1 46.4 4.8 4.8 -11.7637
575 3 48 3.2 3.2 -11.2039
576 1 49.6 4.8 4.8 -11.8415
577 3 0 6.4 3.2 -11.2397
578 1 1.6 8 4.8 -11.7841
579 3 3.2 6.4 3.2 -11.242
580 1 4.8 8 4.8 -11.8439
581 3 6.4 6.4 3.2 -11.2759
582 1 8 8 4.8 -11.815
583 3 9.6 6.4 3.2 -11.2389
584 4 11.2 8 4.8 -13.338
585 3 12.8 6.4 3.2 -11.2761
586 1 14.4 8 4.8 -11.8699
587 3 16 6.4 3.2 -11.3056
588 4 17.6 8 4.8 -13.4028
589 2 19.2 6.4 3.2 -9.80958
590 1 20.8 8 4.8 -11.8435
591 3 22.4 6.4 3.2 -11.2023
592 1 24 8 4.8 -11.8151
593 3 25.6 6.4 3.2 -11.2709
594 4 27.2 8 4.8 -13.3489
595 2 28.8 6.4 3.2 -9.84289
596 4 30.4 8 4.8 -13.2849
597 2 32 6.4 3.2 -9.75536
598 1 33.6 8 4.8 -11.7185
599 2 35.2 6.4 3.2 -9.74985
600 4 36.8 8 4.8 -13.213
601 2 38.4 6.4 3.2 -9.68422
602 1 40 8 4.8 -11.7334
603 3 41.6 6.4 3.2 -11.2387
604 1 43.2 8 4.8 -11.8117
605 3 44.8 6.4 3.2 -11.2397
606 1 46.4 8 4.8 -11.8414
607 3 48 6.4 3.2 -11.2759
608 1 49.6 8 4.8 -11.8437
609 2 0 9.6 3.2 -9.75426
610 1 1.6 11.2 4.8 -11.7041
611 3 3.2 9.6 3.2 -11.1626
612 4 4.8 11.2 4.8 -13.3046
613 3 6.4 9.6 3.2 -11.2764
614 1 8 11.2 4.8 -11.8693
615 3 9.6 9.6 3.2 -11.2387
616 1 11.2 11.2 4.8 -11.8279
617 3 12.8 9.6 3.2 -11.2387
618 1 14.4 11.2 4.8 -11.7971
619 3 16 9.6 3.2 -11.3385
620 1 17.6 11.2 4.8 -11.8694
621 3 19.2 9.6 3.2 -11.3037
622 1 20.8 11.2 4.8 -11.8552
623 3 22.4 9.6 3.2 -11.2402
624 4 24 11.2 4.8 -13.4088
625 2 25.6 9.6 3.2 -9.83731
626 3 27.2 11.2 4.8 -11.2958
627 2 28.8 9.6 3.2 -9.88669
628 2 30.4 11.2 4.8 -9.85761
629 4 32 9.6 3.2 -13.2393
630 4 33.6 11.2 4.8 -13.2957
631 3 35.2 9.6 3.2 -11.1102
632 4 36.8 11.2 4.8 -13.2312
633 2 38.4 9.6 3.2 -9.76358
634 2 40 11.2 4.8 -9.75497
635 3 41.6 9.6 3.2 -11.1987
636 1 43.2 11.2 4.8 -11.7532
637 3 44.8 9.6 3.2 -11.2054
638 1 46.4 11.2 4.8 -11.7451
639 3 48 9.6 3.2 -11.2672
640 4 49.6 11.2 4.8 -13.2649
641 4 0 12.8 3.2 -13.1547
642 2 1.6 14.4 4.8 -9.78607
643 2 3.2 12.8 3.2 -9.76182
644 4 4.8 14.4 4.8 -13.3511
645 3 6.4 12.8 3.2 -11.3315
646 4 8 14.4 4.8 -13.3248
647 3 9.6 12.8 3.2 -11.3011
648 4 11.2 14.4 4.8 -13.3195
649 3 12.8 12.8 3.2 -11.2311
650 4 14.4 14.4 4.8 -13.3064
651 3 16 12.8 3.2 -11.2365
652 1 17.6 14.4 4.8 -11.813
653 3 19.2 12.8 3.2 -11.2759
654 1 20.8 14.4 4.8 -11.8588
655 3 22.4 12.8 3.2 -11.274
656 4 24 14.4 4.8 -13.2921
657 2 25.6 12.8 3.2 -9.80887
658 4 27.2 14.4 4.8 -13.217
659 2 28.8 12.8 3.2 -9.80456
660 4 30.4 14.4 4.8 -13.3215
661 2 32 12.8 3.2 -9.82136
662 2 33.6 14.4 4.8 -9.78974
663 2 35.2 12.8 3.2 -9.81925
664 2 36.8 14.4 4.8 -9.797
665 4 38.4 12.8 3.2 -13.2228
666 3 40 14.4 4.8 -11.29
667 4 41.6 12.8 3.2 -13.2859
668 2 43.2 14.4 4.8 -9.84433
669 2 44.8 12.8 3.2 -9.72792
670 2 46.4 14.4 4.8 -9.83388
671 4 48 12.8 3.2 -13.2503
672 4 49.6 14.4 4.8 -13.2148
673 1 0 16 3.2 -11.7096
674 3 1.6 17.6 4.8 -11.2542
675 4 3.2 16 3.2 -13.3309
676 2 4.8 17.6 4.8 -9.84561
677 3 6.4 16 3.2 -11.1948
678 4 8 17.6 4.8 -13.3491
679 4 9.6 16 3.2 -13.3845
680 4 11.2 17.6 4.8 -13.3469
681 2 12.8 16 3.2 -9.81702
682 4 14.4 17.6 4.8 -13.2869
683 2 16 16 3.2 -9.75862
684 1 17.6 17.6 4.8 -11.7468
685 3 19.2 16 3.2 -11.2349
686 4 20.8 17.6 4.8 -13.3275
687 3 22.4 16 3.2 -11.2676
688 1 24 17.6 4.8 -11.6993
689 2 25.6 16 3.2 -9.64276
690 1 27.2 17.6 4.8 -11.6409
691 4 28.8 16 3.2 -13.2509
692 3 30.4 17.6 4.8 -11.2724
693 2 32 16 3.2 -9.79635
694 2 33.6 17.6 4.8 -9.78841
695 1 35.2 16 3.2 -11.6672
696 2 36.8 17.6 4.8 -9.78402
697 4 38.4 16 3.2 -13.2534
698 2 40 17.6 4.8 -9.72441
699 4 41.6 16 3.2 -13.2251
700 4 43.2 17.6 4.8 -13.161
701 2 44.8 16 3.2 -9.85924
702 2 46.4 17.6 4.8 -9.81816
703 2 48 16 3.2 -9.775
704 2 49.6 17.6 4.8 -9.79219
705 1 0 19.2 3.2 -11.7649
706 3 1.6 20.8 4.8 -11.3078
707 1 3.2 19.2 3.2 -11.7867
708 3 4.8 20.8 4.8 -11.307
709 4 6.4 19.2 3.2 -13.3696
710 3 8 20.8 4.8 -11.3169
711 2 9.6 19.2 3.2 -9.87093
712 3 11.2 20.8 4.8 -11.3796
713 4 12.8 19.2 3.2 -13.3742
714 3 14.4 20.8 4.8 -11.2635
715 2 16 19.2 3.2 -9.81876
716 4 17.6 20.8 4.8 -13.3422
717 4 19.2 19.2 3.2 -13.3364
718 2 20.8 20.8 4.8 -9.845
719 3 22.4 19.2 3.2 -11.2903
720 4 24 20.8 4.8 -13.3201
721 4 25.6 19.2 3.2 -13.2428
722 4 27.2 20.8 4.8 -13.2156
723 4 28.8 19.2 3.2 -13.258
724 2 30.4 20.8 4.8 -9.7891
725 1 32 19.2 3.2 -11.771
726 2 33.6 20.8 4.8 -9.68851
727 1 35.2 19.2 3.2 -11.7236
728 3 36.8 20.8 4.8 -11.2277
729 1 38.4 19.2 3.2 -11.7302
730 2 40 20.8 4.8 -9.80538
731 1 41.6 19.2 3.2 -11.6802
732 3 43.2 20.8 4.8 -11.1975
733 4 44.8 19.2 3.2 -13.2751
734 3 46.4 20.8 4.8 -11.2387
735 1 48 19.2 3.2 -11.7631
736 3 49.6 20.8 4.8 -11.2737
737 1 0 22.4 3.2 -11.8123
738 3 1.6 24 4.8 -11.2417
739 1 3.2 22.4 3.2 -11.8412
740 3 4.8 24 4.8 -11.2753
741 1 6.4 22.4 3.2 -11.8574
742 3 8 24 4.8 -11.3092
743 1 9.6 22.4 3.2 -11.8254
744 3 11.2 24 4.8 -11.1622
745 1 12.8 22.4 3.2 -11.7464
746 2 14.4 24 4.8 -9.73528
747 4 16 22.4 3.2 -13.2585
748 4 17.6 24 4.8 -13.1334
749 2 19.2 22.4 3.2 -9.78993
750 4 20.8 24 4.8 -13.3081
751 4 22.4 22.4 3.2 -13.4539
752 2 24 24 4.8 -9.84643
753 2 25.6 22.4 3.2 -9.82234
754 3 27.2 24 4.8 -11.2879
755 4 28.8 22.4 3.2 -13.3167
756 3 30.4 24 4.8 -11.2181
757 1 32 22.4 3.2 -11.7112
758 4 33.6 24 4.8 -13.0115
759 1 35.2 22.4 3.2 -11.7282
760 2 36.8 24 4.8 -9.71225
761 4 38.4 22.4 3.2 -13.329
762 3 40 24 4.8 -11.2315
763 1 41.6 22.4 3.2 -11.829
764 3 43.2 24 4.8 -11.3099
765 1 44.8 22.4 3.2 -11.8279
766 3 46.4 24 4.8 -11.2397
767 1 48 22.4 3.2 -11.7844
768 3 49.6 24 4.8 -11.2036
769 1 0 25.6 3.2 -11.8122
771 1 3.2 25.6 3.2 -11.8558
773 4 6.4 25.6 3.2 -13.3645
775 1 9.6 25.6 3.2 -11.8396
777 1 12.8 25.6 3.2 -11.75
779 1 16 25.6 3.2 -11.6653
781 1 19.2 25.6 3.2 -11.6352
783 4 22.4 25.6 3.2 -13.3493
785 1 25.6 25.6 3.2 -11.8321
787 4 28.8 25.6 3.2 -13.314
789 4 32 25.6 3.2 -13.213
791 1 35.2 25.6 3.2 -11.6788
793 1 38.4 25.6 3.2 -11.7693
795 1 41.6 25.6 3.2 -11.7989
797 1 44.8 25.6 3.2 -11.8415
799 1 48 25.6 3.2 -11.8259
770 3 1.6 27.2 4.8 -11.2033
801 1 0 28.8 3.2 -11.8396
772 3 4.8 27.2 4.8 -11.2758
803 1 3.2 28.8 3.2 -11.7844
774 3 8 27.2 4.8 -11.3089
805 1 6.4 28.8 3.2 -11.8397
776 3 11.2 27.2 4.8 -11.2744
807 4 9.6 28.8 3.2 -13.3645
778 3 14.4 27.2 4.8 -11.202
809 1 12.8 28.8 3.2 -11.8396
780 2 17.6 27.2 4.8 -9.66127
811 1 16 28.8 3.2 -11.7402
782 2 20.8 27.2 4.8 -9.7543
813 1 19.2 28.8 3.2 -11.7363
784 3 24 27.2 4.8 -11.233
815 1 22.4 28.8 3.2 -11.8275
817 1 25.6 28.8 3.2 -11.8016
786 3 27.2 27.2 4.8 -11.2625
819 4 28.8 28.8 3.2 -13.2306
788 2 30.4 27.2 4.8 -9.87247
821 4 32 28.8 3.2 -13.2935
790 2 33.6 27.2 4.8 -9.72553
823 4 35.2 28.8 3.2 -13.2582
792 2 36.8 27.2 4.8 -9.75197
825 4 38.4 28.8 3.2 -13.294
794 2 40 27.2 4.8 -9.78417
827 1 41.6 28.8 3.2 -11.7488
796 3 43.2 27.2 4.8 -11.2635
829 4 44.8 28.8 3.2 -13.3116
798 3 46.4 27.2 4.8 -11.3685
831 4 48 28.8 3.2 -13.3609
800 3 49.6 27.2 4.8 -11.2759
802 2 1.6 30.4 4.8 -9.73522
833 1 0 32 3.2 -11.785
804 3 4.8 30.4 4.8 -11.1636
835 1 3.2 32 3.2 -11.7841
806 3 8 30.4 4.8 -11.2761
837 1 6.4 32 3.2 -11.8
808 3 11.2 30.4 4.8 -11.2736
839 1 9.6 32 3.2 -11.8258
810 3 14.4 30.4 4.8 -11.2696
841 1 12.8 32 3.2 -11.8412
812 2 17.6 30.4 4.8 -9.75064
843 4 16 32 3.2 -13.333
814 3 20.8 30.4 4.8 -11.1964
845 4 19.2 32 3.2 -13.3052
816 3 24 30.4 4.8 -11.3374
847 1 22.4 32 3.2 -11.8248
849 4 25.6 32 3.2 -13.3039
818 2 27.2 30.4 4.8 -9.81603
851 1 28.8 32 3.2 -11.7403
820 2 30.4 30.4 4.8 -9.72829
853 1 32 32 3.2 -11.7128
822 2 33.6 30.4 4.8 -9.78787
855 1 35.2 32 3.2 -11.6274
824 2 36.8 30.4 4.8 -9.75858
857 4 38.4 32 3.2 -13.1479
826 4 40 30.4 4.8 -13.2115
859 4 41.6 32 3.2 -13.2594
828 3 43.2 30.4 4.8 -11.2601
861 4 44.8 32 3.2 -13.3479
830 3 46.4 30.4 4.8 -11.3011
863 1 48 32 3.2 -11.7822
832 3 49.6 30.4 4.8 -11.1991
834 3 1.6 33.6 4.8 -11.2002
865 4 0 35.2 3.2 -13.3011
836 3 4.8 33.6 4.8 -11.2767
867 1 3.2 35.2 3.2 -11.8577
838 3 8 33.6 4.8 -11.24
869 4 6.4 35.2 3.2 -13.3344
840 3 11.2 33.6 4.8 -11.2369
871 1 9.6 35.2 3.2 -11.8179
842 3 14.4 33.6 4.8 -11.294
873 4 12.8 35.2 3.2 -13.3385
844 2 17.6 33.6 4.8 -9.79272
875 4 16 35.2 3.2 -13.2548
846 3 20.8 33.6 4.8 -11.2656
877 4 19.2 35.2 3.2 -13.2314
848 3 24 33.6 4.8 -11.2922
879 1 22.4 35.2 3.2 -11.6639
881 1 25.6 35.2 3.2 -11.7652
850 3 27.2 33.6 4.8 -11.2984
883 4 28.8 35.2 3.2 -13.3568
852 3 30.4 33.6 4.8 -11.1869
885 2 32 35.2 3.2 -9.83175
854 2 33.6 33.6 4.8 -9.78677
887 2 35.2 35.2 3.2 -9.7948
856 1 36.8 33.6 4.8 -11.6197
889 2 38.4 35.2 3.2 -9.81336
858 1 40 33.6 4.8 -11.6107
891 2 41.6 35.2 3.2 -9.84221
860 3 43.2 33.6 4.8 -11.2933
893 4 44.8 35.2 3.2 -13.4242
862 3 46.4 33.6 4.8 -11.3048
895 1 48 35.2 3.2 -11.7844
864 2 49.6 33.6 4.8 -9.77518
866 3 1.6 36.8 4.8 -11.2725
897 4 0 38.4 3.2 -13.3248
868 3 4.8 36.8 4.8 -11.2689
899 1 3.2 38.4 3.2 -11.7716
870 3 8 36.8 4.8 -11.3272
901 4 6.4 38.4 3.2 -13.3715
872 2 11.2 36.8 4.8 -9.86327
903 4 9.6 38.4 3.2 -13.3898
874 4 14.4 36.8 4.8 -13.2938
905 3 12.8 38.4 3.2 -11.2006
876 2 17.6 36.8 4.8 -9.76677
907 4 16 38.4 3.2 -13.2234
878 2 20.8 36.8 4.8 -9.79417
909 4 19.2 38.4 3.2 -13.2832
880 4 24 36.8 4.8 -13.2348
911 2 22.4 38.4 3.2 -9.82012
913 3 25.6 38.4 3.2 -11.1817
882 2 27.2 36.8 4.8 -9.8371
915 2 28.8 38.4 3.2 -9.81445
884 4 30.4 36.8 4.8 -13.3581
917 3 32 38.4 3.2 -11.3338
886 4 33.6 36.8 4.8 -13.3696
919 3 35.2 38.4 3.2 -11.3012
888 4 36.8 36.8 4.8 -13.3396
921 3 38.4 38.4 3.2 -11.2914
890 4 40 36.8 4.8 -13.3092
923 2 41.6 38.4 3.2 -9.91497
892 2 43.2 36.8 4.8 -9.86544
925 2 44.8 38.4 3.2 -9.85628
894 3 46.4 36.8 4.8 -11.2612
927 4 48 38.4 3.2 -13.2656
896 3 49.6 36.8 4.8 -11.268
898 2 1.6 40 4.8 -9.78651
929 2 0 41.6 3.2 -9.78407
900 3 4.8 40 4.8 -11.2864
931 4 3.2 41.6 3.2 -13.2898
902 2 8 40 4.8 -9.89988
933 2 6.4 41.6 3.2 -9.88049
904 4 11.2 40 4.8 -13.3261
935 3 9.6 41.6 3.2 -11.288
906 1 14.4 40 4.8 -11.7242
937 2 12.8 41.6 3.2 -9.80419
908 4 17.6 40 4.8 -13.2672
939 3 16 41.6 3.2 -11.19
910 4 20.8 40 4.8 -13.2998
941 3 19.2 41.6 3.2 -11.2992
912 1 24 40 4.8 -11.8009
943 3 22.4 41.6 3.2 -11.2344
945 3 25.6 41.6 3.2 -11.2411
914 1 27.2 40 4.8 -11.8041
947 3 28.8 41.6 3.2 -11.2045
916 1 30.4 40 4.8 -11.8109
949 3 32 41.6 3.2 -11.24
918 4 33.6 40 4.8 -13.3269
951 2 35.2 41.6 3.2 -9.74842
920 1 36.8 40 4.8 -11.7849
953 2 38.4 41.6 3.2 -9.78105
922 4 40 40 4.8 -13.3237
955 3 41.6 41.6 3.2 -11.2958
924 4 43.2 40 4.8 -13.2896
957 3 44.8 41.6 3.2 -11.2582
926 2 46.4 40 4.8 -9.78539
959 2 48 41.6 3.2 -9.81605
928 2 49.6 40 4.8 -9.84258
930 4 1.6 43.2 4.8 -13.2479
961 4 0 44.8 3.2 -13.3173
932 4 4.8 43.2 4.8 -13.2876
963 2 3.2 44.8 3.2 -9.83861
934 4 8 43.2 4.8 -13.342
965 2 6.4 44.8 3.2 -9.84664
936 1 11.2 43.2 4.8 -11.755
967 3 9.6 44.8 3.2 -11.3022
938 1 14.4 43.2 4.8 -11.7674
969 3 12.8 44.8 3.2 -11.2048
940 1 17.6 43.2 4.8 -11.8289
971 3 16 44.8 3.2 -11.2013
942 1 20.8 43.2 4.8 -11.8418
973 3 19.2 44.8 3.2 -11.2729
944 1 24 43.2 4.8 -11.8414
975 3 22.4 44.8 3.2 -11.2761
977 3 25.6 44.8 3.2 -11.2417
946 1 27.2 43.2 4.8 -11.8416
979 3 28.8 44.8 3.2 -11.2417
948 1 30.4 43.2 4.8 -11.8122
981 3 32 44.8 3.2 -11.2381
950 1 33.6 43.2 4.8 -11.8037
983 3 35.2 44.8 3.2 -11.2732
952 4 36.8 43.2 4.8 -13.2454
985 3 38.4 44.8 3.2 -11.2026
954 1 40 43.2 4.8 -11.7589
987 3 41.6 44.8 3.2 -11.2366
956 1 43.2 43.2 4.8 -11.8176
989 3 44.8 44.8 3.2 -11.3067
958 4 46.4 43.2 4.8 -13.2731
991 2 48 44.8 3.2 -9.76248
960 2 49.6 43.2 4.8 -9.81055
962 4 1.6 46.4 4.8 -13.3428
993 3 0 48 3.2 -11.26
964 1 4.8 46.4 4.8 -11.7548
995 3 3.2 48 3.2 -11.287
966 4 8 46.4 4.8 -13.2611
997 2 6.4 48 3.2 -9.81388
968 1 11.2 46.4 4.8 -11.8042
999 3 9.6 48 3.2 -11.2691
970 1 14.4 46.4 4.8 -11.7679
1001 3 12.8 48 3.2 -11.1988
972 1 17.6 46.4 4.8 -11.7938
1003 2 16 48 3.2 -9.74088
974 4 20.8 46.4 4.8 -13.3645
1005 3 19.2 48 3.2 -11.2729
976 1 24 46.4 4.8 -11.8698
1007 3 22.4 48 3.2 -11.2728
1009 3 25.6 48 3.2 -11.2756
978 1 27.2 46.4 4.8 -11.8415
1011 3 28.8 48 3.2 -11.2759
980 1 30.4 46.4 4.8 -11.7961
1013 3 32 48 3.2 -11.2724
982 1 33.6 46.4 4.8 -11.828
1015 3 35.2 48 3.2 -11.2756
984 1 36.8 46.4 4.8 -11.8433
1017 3 38.4 48 3.2 -11.2036
986 1 40 46.4 4.8 -11.8134
1019 2 41.6 48 3.2 -9.76901
988 4 43.2 46.4 4.8 -13.3066
1021 3 44.8 48 3.2 -11.199
990 1 46.4 46.4 4.8 -11.7149
1023 2 48 48 3.2 -9.7458
992 1 49.6 46.4 4.8 -11.718
994 4 1.6 49.6 4.8 -13.3598
996 1 4.8 49.6 4.8 -11.7974
998 1 8 49.6 4.8 -11.7829
1000 1 11.2 49.6 4.8 -11.8117
1002 1 14.4 49.6 4.8 -11.7677
1004 1 17.6 49.6 4.8 -11.796
1006 1 20.8 49.6 4.8 -11.8709
1008 4 24 49.6 4.8 -13.3389
1010 1 27.2 49.6 4.8 -11.8422
1012 4 30.4 49.6 4.8 -13.3395
1014 1 33.6 49.6 4.8 -11.8278
1016 1 36.8 49.6 4.8 -11.8557
1018 1 40 49.6 4.8 -11.8119
1020 1 43.2 49.6 4.8 -11.7856
1022 1 46.4 49.6 4.8 -11.7391
1024 1 49.6 49.6 4.8 -11.7938
1025 3 0 0 6.4 -11.2387
1026 1 1.6 1.6 8 -11.7982
1027 3 3.2 0 6.4 -11.2379
1028 1 4.8 1.6 8 -11.8434
1029 3 6.4 0 6.4 -11.2737
1030 1 8 1.6 8 -11.8552
1031 3 9.6 0 6.4 -11.2732
1032 1 11.2 1.6 8 -11.859
1033 3 12.8 0 6.4 -11.2707
1034 4 14.4 1.6 8 -13.332
1035 3 16 0 6.4 -11.2369
1036 1 17.6 1.6 8 -11.7912
1037 3 19.2 0 6.4 -11.3056
1038 4 20.8 1.6 8 -13.3104
1039 3 22.4 0 6.4 -11.3025
1040 1 24 1.6 8 -11.7484
1041 3 25.6 0 6.4 -11.2364
1042 4 27.2 1.6 8 -13.2763
1043 2 28.8 0 6.4 -9.83587
1044 4 30.4 1.6 8 -13.2687
1045 3 32 0 6.4 -11.2341
1046 1 33.6 1.6 8 -11.7748
1047 3 35.2 0 6.4 -11.2408
1048 1 36.8 1.6 8 -11.7629
1049 3 38.4 0 6.4 -11.2384
1050 4 40 1.6 8 -13.2731
1051 3 41.6 0 6.4 -11.2379
1052 1 43.2 1.6 8 -11.7489
1053 2 44.8 0 6.4 -9.72833
1054 4 46.4 1.6 8 -13.2976
1055 3 48 0 6.4 -11.2369
1056 1 49.6 1.6 8 -11.8257
1057 3 0 3.2 6.4 -11.2417
1058 1 1.6 4.8 8 -11.8414
1059 3 3.2 3.2 6.4 -11.2417
1060 1 4.8 4.8 8 -11.8695
1061 3 6.4 3.2 6.4 -11.3073
1062 1 8 4.8 8 -11.7637
1063 3 9.6 3.2 6.4 -11.2338
1064 1 11.2 4.8 8 -11.7387
1065 3 12.8 3.2 6.4 -11.2767
1066 1 14.4 4.8 8 -11.8018
1067 3 16 3.2 6.4 -11.2734
1068 1 17.6 4.8 8 -11.7743
1069 3 19.2 3.2 6.4 -11.2978
1070 4 20.8 4.8 8 -13.3234
1071 3 22.4 3.2 6.4 -11.2981
1072 4 24 4.8 8 -13.3076
1073 3 25.6 3.2 6.4 -11.2692
1074 4 27.2 4.8 8 -13.2558
1075 2 28.8 3.2 6.4 -9.79017
1076 1 30.4 4.8 8 -11.7179
1077 3 32 3.2 6.4 -11.2699
1078 1 33.6 4.8 8 -11.8144
1079 3 35.2 3.2 6.4 -11.1996
1080 1 36.8 4.8 8 -11.7729
1081 2 38.4 3.2 6.4 -9.74699
1082 4 40 4.8 8 -13.3178
1083 3 41.6 3.2 6.4 -11.2312
1084 4 43.2 4.8 8 -13.3487
1085 4 44.8 3.2 6.4 -13.1935
1086 4 46.4 4.8 8 -13.3812
1087 3 48 3.2 6.4 -11.2371
1088 1 49.6 4.8 8 -11.8556
1089 3 0 6.4 6.4 -11.242
1090 1 1.6 8 8 -11.8281
1091 3 3.2 6.4 6.4 -11.2391
1092 4 4.8 8 8 -13.358
1093 3 6.4 6.4 6.4 -11.2354
1094 1 8 8 8 -11.7789
1095 4 9.6 6.4 6.4 -13.1927
1096 4 11.2 8 8 -13.2926
1097 3 12.8 6.4 6.4 -11.1987
1098 1 14.4 8 8 -11.7726
1099 3 16 6.4 6.4 -11.3038
1100 4 17.6 8 8 -13.2955
1101 3 19.2 6.4 6.4 -11.2972
1102 1 20.8 8 8 -11.7074
1103 3 22.4 6.4 6.4 -11.2704