ITEM: TIMESTEP
0
ITEM: NUMBER OF ATOMS
8192
ITEM: BOX BOUNDS pp pp pp
0.0000000000000000e+00 5.1200000000000003e+01
0.0000000000000000e+00 5.1200000000000003e+01
0.0000000000000000e+00 5.1200000000000003e+01
ITEM: ATOMS id type x y z c_eng
1 3 0 0 0 -11.2036
2 1 1.6 1.6 1.6 -11.8417
3 3 3.2 0 0 -11.2021
4 1 4.8 1.6 1.6 -11.8122
5 2 6.4 0 0 -9.74221
6 1 8 1.6 1.6 -11.8259
7 3 9.6 0 0 -11.2381
8 1 11.2 1.6 1.6 -11.8557
9 3 12.8 0 0 -11.2753
10 1 14.4 1.6 1.6 -11.8557
11 3 16 0 0 -11.2758
12 4 17.6 1.6 1.6 -13.3135
13 3 19.2 0 0 -11.2764
14 1 20.8 1.6 1.6 -11.7562
15 3 22.4 0 0 -11.2381
16 1 24 1.6 1.6 -11.7306
17 3 25.6 0 0 -11.2381
18 1 27.2 1.6 1.6 -11.7941
19 3 28.8 0 0 -11.2756
20 4 30.4 1.6 1.6 -13.3645
21 3 32 0 0 -11.2756
22 1 33.6 1.6 1.6 -11.8841
23 3 35.2 0 0 -11.2753
24 4 36.8 1.6 1.6 -13.3639
25 3 38.4 0 0 -11.2731
26 1 40 1.6 1.6 -11.8418
27 2 41.6 0 0 -9.769
28 1 43.2 1.6 1.6 -11.7982
29 3 44.8 0 0 -11.2039
30 1 46.4 1.6 1.6 -11.8122
31 3 48 0 0 -11.242
32 1 49.6 1.6 1.6 -11.8416
33 3 0 3.2 0 -11.2753
34 1 1.6 4.8 1.6 -11.8416
35 3 3.2 3.2 0 -11.2417
36 1 4.8 4.8 1.6 -11.8416
37 3 6.4 3.2 0 -11.2036
38 1 8 4.8 1.6 -11.8557
39 3 9.6 3.2 0 -11.2756
40 1 11.2 4.8 1.6 -11.8415
41 3 12.8 3.2 0 -11.2753
42 1 14.4 4.8 1.6 -11.8415
43 3 16 3.2 0 -11.2759
44 1 17.6 4.8 1.6 -11.8154
45 3 19.2 3.2 0 -11.2017
46 1 20.8 4.8 1.6 -11.7466
47 3 22.4 3.2 0 -11.2387
48 1 24 4.8 1.6 -11.7807
49 3 25.6 3.2 0 -11.2381
50 1 27.2 4.8 1.6 -11.8171
51 3 28.8 3.2 0 -11.2761
52 1 30.4 4.8 1.6 -11.809
53 3 32 3.2 0 -11.3089
54 4 33.6 4.8 1.6 -13.3601
55 3 35.2 3.2 0 -11.3091
56 1 36.8 4.8 1.6 -11.8267
57 3 38.4 3.2 0 -11.2761
58 1 40 4.8 1.6 -11.7958
59 3 41.6 3.2 0 -11.2328
60 4 43.2 4.8 1.6 -13.3579
61 3 44.8 3.2 0 -11.2352
62 1 46.4 4.8 1.6 -11.8437
63 3 48 3.2 0 -11.2758
64 1 49.6 4.8 1.6 -11.8556
65 3 0 6.4 0 -11.2756
66 1 1.6 8 1.6 -11.8119
67 3 3.2 6.4 0 -11.2414
68 1 4.8 8 1.6 -11.8558
69 3 6.4 6.4 0 -11.2414
70 1 8 8 1.6 -11.8413
71 3 9.6 6.4 0 -11.2417
72 1 11.2 8 1.6 -11.8282
73 3 12.8 6.4 0 -11.2036
74 1 14.4 8 1.6 -11.8122
75 3 16 6.4 0 -11.242
76 1 17.6 8 1.6 -11.8282
77 3 19.2 6.4 0 -11.2426
78 1 20.8 8 1.6 -11.8123
79 3 22.4 6.4 0 -11.2417
80 1 24 8 1.6 -11.8553
81 3 25.6 6.4 0 -11.3081
82 4 27.2 8 1.6 -13.3253
83 3 28.8 6.4 0 -11.1597
84 1 30.4 8 1.6 -11.7583
85 3 32 6.4 0 -11.2742
86 4 33.6 8 1.6 -13.3247
87 3 35.2 6.4 0 -11.2361
88 1 36.8 8 1.6 -11.7238
89 3 38.4 6.4 0 -11.2013
90 1 40 8 1.6 -11.7707
91 3 41.6 6.4 0 -11.304
92 1 43.2 8 1.6 -11.8275
93 3 44.8 6.4 0 -11.3076
94 1 46.4 8 1.6 -11.841
95 3 48 6.4 0 -11.2759
96 1 49.6 8 1.6 -11.8574
97 3 0 9.6 0 -11.2696
98 1 1.6 11.2 1.6 -11.7073
99 3 3.2 9.6 0 -11.2402
100 4 4.8 11.2 1.6 -13.3064
101 3 6.4 9.6 0 -11.2754
102 1 8 11.2 1.6 -11.8459
103 3 9.6 9.6 0 -11.2707
104 4 11.2 11.2 1.6 -13.3055
105 2 12.8 9.6 0 -9.74699
106 1 14.4 11.2 1.6 -11.756
107 3 16 9.6 0 -11.1604
108 4 17.6 11.2 1.6 -13.3147
109 3 19.2 9.6 0 -11.2019
110 1 20.8 11.2 1.6 -11.828
111 3 22.4 9.6 0 -11.2761
112 1 24 11.2 1.6 -11.8289
113 3 25.6 9.6 0 -11.2994
114 4 27.2 11.2 1.6 -13.2923
115 4 28.8 9.6 0 -13.2378
116 4 30.4 11.2 1.6 -13.2576
117 3 32 9.6 0 -11.2583
118 4 33.6 11.2 1.6 -13.4223
119 3 35.2 9.6 0 -11.2643
120 4 36.8 11.2 1.6 -13.2277
121 2 38.4 9.6 0 -9.78595
122 4 40 11.2 1.6 -13.326
123 3 41.6 9.6 0 -11.3037
124 1 43.2 11.2 1.6 -11.7882
125 3 44.8 9.6 0 -11.274
126 1 46.4 11.2 1.6 -11.7742
127 3 48 9.6 0 -11.2664
128 2 49.6 11.2 1.6 -9.77775
129 4 0 12.8 0 -13.29
130 2 1.6 14.4 1.6 -9.81946
131 4 3.2 12.8 0 -13.2811
132 2 4.8 14.4 1.6 -9.84144
133 2 6.4 12.8 0 -9.82097
134 4 8 14.4 1.6 -13.359
135 2 9.6 12.8 0 -9.84518
136 4 11.2 14.4 1.6 -13.2795
137 2 12.8 12.8 0 -9.728
138 1 14.4 14.4 1.6 -11.7146
139 2 16 12.8 0 -9.78146
140 1 17.6 14.4 1.6 -11.846
141 3 19.2 12.8 0 -11.2338
142 1 20.8 14.4 1.6 -11.8151
143 3 22.4 12.8 0 -11.2702
144 1 24 14.4 1.6 -11.73
145 2 25.6 12.8 0 -9.75899
146 4 27.2 14.4 1.6 -13.1604
147 2 28.8 12.8 0 -9.70094
148 1 30.4 14.4 1.6 -11.7132
149 2 32 12.8 0 -9.86541
150 2 33.6 14.4 1.6 -9.84607
151 3 35.2 12.8 0 -11.3177
152 4 36.8 14.4 1.6 -13.2787
153 2 38.4 12.8 0 -9.82041
154 2 40 14.4 1.6 -9.81681
155 2 41.6 12.8 0 -9.82013
156 4 43.2 14.4 1.6 -13.2595
157 2 44.8 12.8 0 -9.79093
158 4 46.4 14.4 1.6 -13.2822
159 2 48 12.8 0 -9.79283
160 2 49.6 14.4 1.6 -9.7666
161 4 0 16 0 -13.3111
162 2 1.6 17.6 1.6 -9.78591
163 2 3.2 16 0 -9.84448
164 4 4.8 17.6 1.6 -13.3773
165 4 6.4 16 0 -13.3894
166 3 8 17.6 1.6 -11.3057
167 1 9.6 16 0 -11.7397
168 2 11.2 17.6 1.6 -9.81935
169 4 12.8 16 0 -13.2277
170 4 14.4 17.6 1.6 -13.3648
171 3 16 16 0 -11.2806
172 2 17.6 17.6 1.6 -9.83131
173 2 19.2 16 0 -9.87093
174 4 20.8 17.6 1.6 -13.2738
175 2 22.4 16 0 -9.76332
176 4 24 17.6 1.6 -13.2688
177 4 25.6 16 0 -13.2083
178 2 27.2 17.6 1.6 -9.81555
179 2 28.8 16 0 -9.77426
180 3 30.4 17.6 1.6 -11.3071
181 2 32 16 0 -9.86094
182 2 33.6 17.6 1.6 -9.78195
183 4 35.2 16 0 -13.3223
184 2 36.8 17.6 1.6 -9.76211
185 2 38.4 16 0 -9.80828
186 2 40 17.6 1.6 -9.79129
187 4 41.6 16 0 -13.2517
188 2 43.2 17.6 1.6 -9.81081
189 2 44.8 16 0 -9.8185
190 2 46.4 17.6 1.6 -9.78225
191 4 48 16 0 -13.2951
192 2 49.6 17.6 1.6 -9.75598
193 1 0 19.2 0 -11.8135
194 3 1.6 20.8 1.6 -11.2405
195 4 3.2 19.2 0 -13.3572
196 3 4.8 20.8 1.6 -11.3026
197 4 6.4 19.2 0 -13.4412
198 3 8 20.8 1.6 -11.3968
199 4 9.6 19.2 0 -13.3708
200 3 11.2 20.8 1.6 -11.3329
201 4 12.8 19.2 0 -13.3142
202 2 14.4 20.8 1.6 -9.9091
203 2 16 19.2 0 -9.93691
204 2 17.6 20.8 1.6 -9.87729
205 4 19.2 19.2 0 -13.2769
206 4 20.8 20.8 1.6 -13.2948
207 1 22.4 19.2 0 -11.6744
208 2 24 20.8 1.6 -9.81092
209 4 25.6 19.2 0 -13.1851
210 2 27.2 20.8 1.6 -9.81595
211 4 28.8 19.2 0 -13.3153
212 2 30.4 20.8 1.6 -9.84664
213 1 32 19.2 0 -11.7897
214 3 33.6 20.8 1.6 -11.1587
215 1 35.2 19.2 0 -11.7551
216 3 36.8 20.8 1.6 -11.2411
217 1 38.4 19.2 0 -11.8215
218 3 40 20.8 1.6 -11.2694
219 4 41.6 19.2 0 -13.3407
220 3 43.2 20.8 1.6 -11.2584
221 2 44.8 19.2 0 -9.80838
222 4 46.4 20.8 1.6 -13.2452
223 1 48 19.2 0 -11.7378
224 3 49.6 20.8 1.6 -11.1224
225 1 0 22.4 0 -11.7505
226 3 1.6 24 1.6 -11.2002
227 1 3.2 22.4 0 -11.8557
228 3 4.8 24 1.6 -11.3417
229 4 6.4 22.4 0 -13.3816
230 3 8 24 1.6 -11.2731
231 1 9.6 22.4 0 -11.8838
232 3 11.2 24 1.6 -11.2734
233 4 12.8 22.4 0 -13.3296
234 2 14.4 24 1.6 -9.76022
235 2 16 22.4 0 -9.81161
236 4 17.6 24 1.6 -13.1529
237 4 19.2 22.4 0 -13.3063
238 3 20.8 24 1.6 -11.1826
239 1 22.4 22.4 0 -11.7775
240 3 24 24 1.6 -11.3275
241 4 25.6 22.4 0 -13.294
242 2 27.2 24 1.6 -9.81387
243 1 28.8 22.4 0 -11.7787
244 3 30.4 24 1.6 -11.2555
245 4 32 22.4 0 -13.3771
246 2 33.6 24 1.6 -9.89118
247 1 35.2 22.4 0 -11.8431
248 3 36.8 24 1.6 -11.2712
249 1 38.4 22.4 0 -11.883
250 3 40 24 1.6 -11.2666
251 4 41.6 22.4 0 -13.4009
252 3 43.2 24 1.6 -11.2725
253 1 44.8 22.4 0 -11.8256
254 3 46.4 24 1.6 -11.1992
255 1 48 22.4 0 -11.7575
256 2 49.6 24 1.6 -9.77529
257 1 0 25.6 0 -11.7838
259 4 3.2 25.6 0 -13.3394
261 1 6.4 25.6 0 -11.8531
263 1 9.6 25.6 0 -11.8256
265 4 12.8 25.6 0 -13.3229
267 1 16 25.6 0 -11.6541
269 1 19.2 25.6 0 -11.7062
271 1 22.4 25.6 0 -11.8256
273 1 25.6 25.6 0 -11.7958
275 1 28.8 25.6 0 -11.7556
277 4 32 25.6 0 -13.3418
279 4 35.2 25.6 0 -13.3197
281 4 38.4 25.6 0 -13.3557
283 4 41.6 25.6 0 -13.3426
285 1 44.8 25.6 0 -11.8021
287 4 48 25.6 0 -13.2852
258 3 1.6 27.2 1.6 -11.2764
289 1 0 28.8 0 -11.8414
260 3 4.8 27.2 1.6 -11.2716
291 1 3.2 28.8 0 -11.8262
262 3 8 27.2 1.6 -11.2381
293 1 6.4 28.8 0 -11.7827
264 3 11.2 27.2 1.6 -11.3081
295 1 9.6 28.8 0 -11.8152
266 3 14.4 27.2 1.6 -11.1566
297 4 12.8 28.8 0 -13.3108
268 2 17.6 27.2 1.6 -9.6777
299 1 16 28.8 0 -11.7749
270 3 20.8 27.2 1.6 -11.2013
301 1 19.2 28.8 0 -11.8259
272 3 24 27.2 1.6 -11.2739
303 1 22.4 28.8 0 -11.8555
305 1 25.6 28.8 0 -11.7986
274 2 27.2 27.2 1.6 -9.72025
307 1 28.8 28.8 0 -11.6729
276 2 30.4 27.2 1.6 -9.75581
309 1 32 28.8 0 -11.7595
278 2 33.6 27.2 1.6 -9.81869
311 1 35.2 28.8 0 -11.7357
280 2 36.8 27.2 1.6 -9.76477
313 2 38.4 28.8 0 -9.804
282 2 40 27.2 1.6 -9.78576
315 4 41.6 28.8 0 -13.2503
284 2 43.2 27.2 1.6 -9.75766
317 4 44.8 28.8 0 -13.2379
286 3 46.4 27.2 1.6 -11.2663
319 1 48 28.8 0 -11.8322
288 3 49.6 27.2 1.6 -11.2738
290 3 1.6 30.4 1.6 -11.1642
321 1 0 32 0 -11.8122
292 2 4.8 30.4 1.6 -9.73522
323 1 3.2 32 0 -11.8124
294 3 8 30.4 1.6 -11.2007
325 1 6.4 32 0 -11.7702
296 3 11.2 30.4 1.6 -11.2374
327 4 9.6 32 0 -13.3103
298 2 14.4 30.4 1.6 -9.80389
329 1 12.8 32 0 -11.8169
300 3 17.6 30.4 1.6 -11.1944
331 1 16 32 0 -11.8191
302 3 20.8 30.4 1.6 -11.3063
333 4 19.2 32 0 -13.3564
304 3 24 30.4 1.6 -11.2357
335 4 22.4 32 0 -13.331
337 1 25.6 32 0 -11.8281
306 2 27.2 30.4 1.6 -9.68305
339 1 28.8 32 0 -11.7213
308 2 30.4 30.4 1.6 -9.68808
341 1 32 32 0 -11.7138
310 3 33.6 30.4 1.6 -11.1556
343 1 35.2 32 0 -11.6851
312 2 36.8 30.4 1.6 -9.7581
345 4 38.4 32 0 -13.2503
314 2 40 30.4 1.6 -9.79001
347 4 41.6 32 0 -13.2503
316 4 43.2 30.4 1.6 -13.1194
349 1 44.8 32 0 -11.7103
318 2 46.4 30.4 1.6 -9.77894
351 1 48 32 0 -11.7996
320 3 49.6 30.4 1.6 -11.1613
322 3 1.6 33.6 1.6 -11.2045
353 1 0 35.2 0 -11.8264
324 3 4.8 33.6 1.6 -11.1639
355 1 3.2 35.2 0 -11.8413
326 2 8 33.6 1.6 -9.77464
357 1 6.4 35.2 0 -11.8266
328 3 11.2 33.6 1.6 -11.2708
359 4 9.6 35.2 0 -13.3281
330 3 14.4 33.6 1.6 -11.194
361 1 12.8 35.2 0 -11.7871
332 4 17.6 33.6 1.6 -13.2783
363 4 16 35.2 0 -13.2552
334 2 20.8 33.6 1.6 -9.78859
365 4 19.2 35.2 0 -13.2683
336 2 24 33.6 1.6 -9.75262
367 1 22.4 35.2 0 -11.7355
369 2 25.6 35.2 0 -9.7808
338 3 27.2 33.6 1.6 -11.1934
371 4 28.8 35.2 0 -13.278
340 2 30.4 33.6 1.6 -9.73224
373 4 32 35.2 0 -13.2558
342 2 33.6 33.6 1.6 -9.76236
375 2 35.2 35.2 0 -9.7924
344 4 36.8 33.6 1.6 -13.1811
377 4 38.4 35.2 0 -13.2536
346 3 40 33.6 1.6 -11.1883
379 2 41.6 35.2 0 -9.82805
348 2 43.2 33.6 1.6 -9.80913
381 4 44.8 35.2 0 -13.322
350 3 46.4 33.6 1.6 -11.1585
383 4 48 35.2 0 -13.3423
352 2 49.6 33.6 1.6 -9.71268
354 3 1.6 36.8 1.6 -11.238
385 4 0 38.4 0 -13.2705
356 3 4.8 36.8 1.6 -11.2734
387 1 3.2 38.4 0 -11.819
358 3 8 36.8 1.6 -11.2631
389 4 6.4 38.4 0 -13.3296
360 2 11.2 36.8 1.6 -9.82048
391 4 9.6 38.4 0 -13.3506
362 4 14.4 36.8 1.6 -13.2151
393 4 12.8 38.4 0 -13.2703
364 2 17.6 36.8 1.6 -9.79147
395 2 16 38.4 0 -9.83814
366 2 20.8 36.8 1.6 -9.78822
397 2 19.2 38.4 0 -9.86075
368 4 24 36.8 1.6 -13.1779
399 2 22.4 38.4 0 -9.80654
401 4 25.6 38.4 0 -13.345
370 2 27.2 36.8 1.6 -9.79698
403 4 28.8 38.4 0 -13.2822
372 4 30.4 36.8 1.6 -13.2341
405 2 32 38.4 0 -9.7594
374 1 33.6 36.8 1.6 -11.7649
407 3 35.2 38.4 0 -11.1963
376 4 36.8 36.8 1.6 -13.2635
409 2 38.4 38.4 0 -9.81774
378 4 40 36.8 1.6 -13.3465
411 2 41.6 38.4 0 -9.82077
380 2 43.2 36.8 1.6 -9.83686
413 4 44.8 38.4 0 -13.2946
382 2 46.4 36.8 1.6 -9.81846
415 4 48 38.4 0 -13.2851
384 2 49.6 36.8 1.6 -9.81402
386 2 1.6 40 1.6 -9.81973
417 4 0 41.6 0 -13.2956
388 2 4.8 40 1.6 -9.84804
419 2 3.2 41.6 0 -9.76382
390 4 8 40 1.6 -13.287
421 4 6.4 41.6 0 -13.314
392 4 11.2 40 1.6 -13.2644
423 3 9.6 41.6 0 -11.2847
394 4 14.4 40 1.6 -13.3171
425 3 12.8 41.6 0 -11.2962
396 4 17.6 40 1.6 -13.3478
427 3 16 41.6 0 -11.3231
398 4 20.8 40 1.6 -13.2867
429 2 19.2 41.6 0 -9.78479
400 4 24 40 1.6 -13.3257
431 2 22.4 41.6 0 -9.88897
433 3 25.6 41.6 0 -11.3248
402 4 27.2 40 1.6 -13.3327
435 3 28.8 41.6 0 -11.3
404 1 30.4 40 1.6 -11.7721
437 3 32 41.6 0 -11.2693
406 1 33.6 40 1.6 -11.8256
439 3 35.2 41.6 0 -11.239
408 1 36.8 40 1.6 -11.8431
441 3 38.4 41.6 0 -11.302
410 4 40 40 1.6 -13.348
443 2 41.6 41.6 0 -9.78694
412 4 43.2 40 1.6 -13.2652
445 3 44.8 41.6 0 -11.1983
414 4 46.4 40 1.6 -13.3223
447 2 48 41.6 0 -9.82346
416 2 49.6 40 1.6 -9.78495
418 4 1.6 43.2 1.6 -13.219
449 2 0 44.8 0 -9.78529
420 2 4.8 43.2 1.6 -9.8184
451 4 3.2 44.8 0 -13.2752
422 4 8 43.2 1.6 -13.3217
453 4 6.4 44.8 0 -13.3563
424 1 11.2 43.2 1.6 -11.8431
455 3 9.6 44.8 0 -11.2319
426 1 14.4 43.2 1.6 -11.8694
457 3 12.8 44.8 0 -11.2764
428 1 17.6 43.2 1.6 -11.7672
459 3 16 44.8 0 -11.2392
430 1 20.8 43.2 1.6 -11.7596
461 2 19.2 44.8 0 -9.71429
432 1 24 43.2 1.6 -11.8434
463 3 22.4 44.8 0 -11.2362
465 3 25.6 44.8 0 -11.2397
434 1 27.2 43.2 1.6 -11.8553
467 3 28.8 44.8 0 -11.3076
436 1 30.4 43.2 1.6 -11.8695
469 3 32 44.8 0 -11.3055
438 4 33.6 43.2 1.6 -13.3645
471 3 35.2 44.8 0 -11.2729
440 1 36.8 43.2 1.6 -11.8839
473 3 38.4 44.8 0 -11.2701
442 4 40 43.2 1.6 -13.329
475 2 41.6 44.8 0 -9.77486
444 1 43.2 43.2 1.6 -11.8014
477 3 44.8 44.8 0 -11.2042
446 1 46.4 43.2 1.6 -11.8023
479 3 48 44.8 0 -11.2995
448 4 49.6 43.2 1.6 -13.3439
450 4 1.6 46.4 1.6 -13.2584
481 2 0 48 0 -9.74701
452 2 4.8 46.4 1.6 -9.8361
483 2 3.2 48 0 -9.83638
454 4 8 46.4 1.6 -13.3616
485 3 6.4 48 0 -11.2564
456 1 11.2 46.4 1.6 -11.8556
487 3 9.6 48 0 -11.2392
458 1 14.4 46.4 1.6 -11.8123
489 3 12.8 48 0 -11.2423
460 1 17.6 46.4 1.6 -11.783
491 3 16 48 0 -11.1655
462 1 20.8 46.4 1.6 -11.826
493 3 19.2 48 0 -11.1645
464 1 24 46.4 1.6 -11.8414
495 3 22.4 48 0 -11.2423
497 3 25.6 48 0 -11.242
466 1 27.2 46.4 1.6 -11.8416
499 3 28.8 48 0 -11.2756
468 1 30.4 46.4 1.6 -11.8555
501 3 32 48 0 -11.2394
470 1 33.6 46.4 1.6 -11.8556
503 3 35.2 48 0 -11.2761
472 1 36.8 46.4 1.6 -11.8554
505 3 38.4 48 0 -11.2732
474 1 40 46.4 1.6 -11.8155
507 3 41.6 48 0 -11.1622
476 1 43.2 46.4 1.6 -11.7997
509 3 44.8 48 0 -11.2426
478 1 46.4 46.4 1.6 -11.7983
511 3 48 48 0 -11.2021
480 4 49.6 46.4 1.6 -13.2771
482 1 1.6 49.6 1.6 -11.7982
484 1 4.8 49.6 1.6 -11.8068
486 1 8 49.6 1.6 -11.7994
488 1 11.2 49.6 1.6 -11.8415
490 1 14.4 49.6 1.6 -11.8123
492 1 17.6 49.6 1.6 -11.8262
494 1 20.8 49.6 1.6 -11.812
496 1 24 49.6 1.6 -11.7988
498 1 27.2 49.6 1.6 -11.8121
500 1 30.4 49.6 1.6 -11.8697
502 1 33.6 49.6 1.6 -11.8414
504 1 36.8 49.6 1.6 -11.8697
506 4 40 49.6 1.6 -13.3152
508 1 43.2 49.6 1.6 -11.8022
510 1 46.4 49.6 1.6 -11.8123
512 1 49.6 49.6 1.6 -11.8021
513 3 0 0 3.2 -11.242
514 1 1.6 1.6 4.8 -11.8416
515 3 3.2 0 3.2 -11.2423
516 1 4.8 1.6 4.8 -11.8556
517 3 6.4 0 3.2 -11.1985
518 4 8 1.6 4.8 -13.3626
519 3 9.6 0 3.2 -11.2764
520 1 11.2 1.6 4.8 -11.828
521 3 12.8 0 3.2 -11.242
522 1 14.4 1.6 4.8 -11.8555
523 3 16 0 3.2 -11.2384
524 1 17.6 1.6 4.8 -11.8322
525 3 19.2 0 3.2 -11.2011
526 4 20.8 1.6 4.8 -13.2423
527 2 22.4 0 3.2 -9.71917
528 1 24 1.6 4.8 -11.7266
529 2 25.6 0 3.2 -9.71257
530 1 27.2 1.6 4.8 -11.7845
531 3 28.8 0 3.2 -11.2721
532 1 30.4 1.6 4.8 -11.8304
533 3 32 0 3.2 -11.2731
534 1 33.6 1.6 4.8 -11.8253
535 3 35.2 0 3.2 -11.2756
536 1 36.8 1.6 4.8 -11.8695
537 3 38.4 0 3.2 -11.3091
538 1 40 1.6 4.8 -11.8117
539 3 41.6 0 3.2 -11.2023
540 1 43.2 1.6 4.8 -11.7044
541 3 44.8 0 3.2 -11.1654
542 1 46.4 1.6 4.8 -11.7338
543 3 48 0 3.2 -11.2042
544 1 49.6 1.6 4.8 -11.8416
545 3 0 3.2 3.2 -11.2414
546 1 1.6 4.8 4.8 -11.8416
547 3 3.2 3.2 3.2 -11.2414
548 1 4.8 4.8 4.8 -11.8556
549 3 6.4 3.2 3.2 -11.3073
550 4 8 4.8 4.8 -13.3331
551 3 9.6 3.2 3.2 -11.2727
552 1 11.2 4.8 4.8 -11.7985
553 3 12.8 3.2 3.2 -11.2417
554 1 14.4 4.8 4.8 -11.8696
555 3 16 3.2 3.2 -11.2386
556 4 17.6 4.8 4.8 -13.3119
557 4 19.2 3.2 3.2 -13.1968
558 1 20.8 4.8 4.8 -11.7681
559 2 22.4 3.2 3.2 -9.6563
560 1 24 4.8 4.8 -11.7824
561 2 25.6 3.2 3.2 -9.71129
562 4 27.2 4.8 4.8 -13.303
563 3 28.8 3.2 3.2 -11.1969
564 1 30.4 4.8 4.8 -11.7449
565 3 32 3.2 3.2 -11.3059
566 4 33.6 4.8 4.8 -13.2905
567 3 35.2 3.2 3.2 -11.3376
568 4 36.8 4.8 4.8 -13.2667
569 3 38.4 3.2 3.2 -11.2738
570 1 40 4.8 4.8 -11.7927
571 3 41.6 3.2 3.2 -11.199
572 4 43.2 4.8 4.8 -13.2992
573 2 44.8 3.2 3.2 -9.77862
574 4 46.4 4.8 4.8 -13.3081
575 3 48 3.2 3.2 -11.2397
576 1 49.6 4.8 4.8 -11.8698
577 3 0 6.4 3.2 -11.2394
578 1 1.6 8 4.8 -11.7986
579 3 3.2 6.4 3.2 -11.2417
580 1 4.8 8 4.8 -11.8556
581 3 6.4 6.4 3.2 -11.2756
582 1 8 8 4.8 -11.8281
583 3 9.6 6.4 3.2 -11.2394
584 1 11.2 8 4.8 -11.8279
585 3 12.8 6.4 3.2 -11.242
586 1 14.4 8 4.8 -11.8554
587 3 16 6.4 3.2 -11.2761
588 1 17.6 8 4.8 -11.8394
589 3 19.2 6.4 3.2 -11.1637
590 1 20.8 8 4.8 -11.798
591 3 22.4 6.4 3.2 -11.1648
592 1 24 8 4.8 -11.8143
593 3 25.6 6.4 3.2 -11.2695
594 4 27.2 8 4.8 -13.3485
595 2 28.8 6.4 3.2 -9.78189
596 4 30.4 8 4.8 -13.2314
597 2 32 6.4 3.2 -9.78633
598 1 33.6 8 4.8 -11.6735
599 2 35.2 6.4 3.2 -9.72347
600 1 36.8 8 4.8 -11.5745
601 2 38.4 6.4 3.2 -9.69069
602 4 40 8 4.8 -13.2367
603 2 41.6 6.4 3.2 -9.80743
604 1 43.2 8 4.8 -11.8469
605 3 44.8 6.4 3.2 -11.2702
606 1 46.4 8 4.8 -11.8837
607 3 48 6.4 3.2 -11.3091
608 4 49.6 8 4.8 -13.3338
609 2 0 9.6 3.2 -9.78217
610 1 1.6 11.2 4.8 -11.6859
611 3 3.2 9.6 3.2 -11.2016
612 1 4.8 11.2 4.8 -11.8133
613 3 6.4 9.6 3.2 -11.2759
614 1 8 11.2 4.8 -11.841
615 3 9.6 9.6 3.2 -11.2764
616 1 11.2 11.2 4.8 -11.8446
617 3 12.8 9.6 3.2 -11.2021
618 1 14.4 11.2 4.8 -11.78
619 3 16 9.6 3.2 -11.24
620 1 17.6 11.2 4.8 -11.8282
621 2 19.2 9.6 3.2 -9.76879
622 1 20.8 11.2 4.8 -11.8255
623 3 22.4 9.6 3.2 -11.2384
624 4 24 11.2 4.8 -13.3812
625 3 25.6 9.6 3.2 -11.2983
626 4 27.2 11.2 4.8 -13.2809
627 2 28.8 9.6 3.2 -9.82089
628 4 30.4 11.2 4.8 -13.3134
629 3 32 9.6 3.2 -11.2564
630 4 33.6 11.2 4.8 -13.2797
631 2 35.2 9.6 3.2 -9.71959
632 1 36.8 11.2 4.8 -11.5824
633 2 38.4 9.6 3.2 -9.6981
634 2 40 11.2 4.8 -9.81988
635 3 41.6 9.6 3.2 -11.2615
636 4 43.2 11.2 4.8 -13.3493
637 3 44.8 9.6 3.2 -11.2742
638 4 46.4 11.2 4.8 -13.3514
639 3 48 9.6 3.2 -11.3025
640 4 49.6 11.2 4.8 -13.2791
641 4 0 12.8 3.2 -13.1542
642 2 1.6 14.4 4.8 -9.81175
643 2 3.2 12.8 3.2 -9.78734
644 4 4.8 14.4 4.8 -13.36
645 3 6.4 12.8 3.2 -11.3329
646 1 8 14.4 4.8 -11.7997
647 3 9.6 12.8 3.2 -11.3015
648 2 11.2 14.4 4.8 -9.79068
649 2 12.8 12.8 3.2 -9.78285
650 1 14.4 14.4 4.8 -11.8057
651 3 16 12.8 3.2 -11.201
652 1 17.6 14.4 4.8 -11.841
653 3 19.2 12.8 3.2 -11.2397
654 1 20.8 14.4 4.8 -11.8434
655 3 22.4 12.8 3.2 -11.274
656 4 24 14.4 4.8 -13.2935
657 2 25.6 12.8 3.2 -9.81727
658 4 27.2 14.4 4.8 -13.1861
659 2 28.8 12.8 3.2 -9.73483
660 4 30.4 14.4 4.8 -13.2874
661 2 32 12.8 3.2 -9.86957
662 2 33.6 14.4 4.8 -9.80373
663 2 35.2 12.8 3.2 -9.81396
664 4 36.8 14.4 4.8 -13.2489
665 4 38.4 12.8 3.2 -13.2408
666 3 40 14.4 4.8 -11.2792
667 2 41.6 12.8 3.2 -9.85375
668 2 43.2 14.4 4.8 -9.88608
669 2 44.8 12.8 3.2 -9.813
670 2 46.4 14.4 4.8 -9.83689
671 4 48 12.8 3.2 -13.2841
672 4 49.6 14.4 4.8 -13.1833
673 1 0 16 3.2 -11.7101
674 3 1.6 17.6 4.8 -11.19
675 4 3.2 16 3.2 -13.3563
676 2 4.8 17.6 4.8 -9.79049
677 3 6.4 16 3.2 -11.266
678 4 8 17.6 4.8 -13.2918
679 2 9.6 16 3.2 -9.87027
680 4 11.2 17.6 4.8 -13.3153
681 2 12.8 16 3.2 -9.79308
682 4 14.4 17.6 4.8 -13.327
683 3 16 16 3.2 -11.3361
684 1 17.6 17.6 4.8 -11.7828
685 3 19.2 16 3.2 -11.236
686 1 20.8 17.6 4.8 -11.7577
687 3 22.4 16 3.2 -11.2677
688 4 24 17.6 4.8 -13.2549
689 2 25.6 16 3.2 -9.70835
690 1 27.2 17.6 4.8 -11.7099
691 4 28.8 16 3.2 -13.3096
692 3 30.4 17.6 4.8 -11.193
693 2 32 16 3.2 -9.82808
694 4 33.6 17.6 4.8 -13.2343
695 4 35.2 16 3.2 -13.2154
696 2 36.8 17.6 4.8 -9.79059
697 4 38.4 16 3.2 -13.2581
698 2 40 17.6 4.8 -9.75199
699 1 41.6 16 3.2 -11.7063
700 2 43.2 17.6 4.8 -9.75333
701 2 44.8 16 3.2 -9.85186
702 2 46.4 17.6 4.8 -9.84617
703 2 48 16 3.2 -9.7469
704 2 49.6 17.6 4.8 -9.73269
705 1 0 19.2 3.2 -11.7498
706 3 1.6 20.8 4.8 -11.2426
707 1 3.2 19.2 3.2 -11.7725
708 3 4.8 20.8 4.8 -11.2414
709 4 6.4 19.2 3.2 -13.3637
710 3 8 20.8 4.8 -11.2251
711 4 9.6 19.2 3.2 -13.4054
712 3 11.2 20.8 4.8 -11.3272
713 4 12.8 19.2 3.2 -13.3811
714 3 14.4 20.8 4.8 -11.3375
715 3 16 19.2 3.2 -11.3235
716 4 17.6 20.8 4.8 -13.3478
717 4 19.2 19.2 3.2 -13.2817
718 4 20.8 20.8 4.8 -13.2252
719 3 22.4 19.2 3.2 -11.1733
720 4 24 20.8 4.8 -13.3473
721 4 25.6 19.2 3.2 -13.3182
722 2 27.2 20.8 4.8 -9.78677
723 2 28.8 19.2 3.2 -9.81953
724 4 30.4 20.8 4.8 -13.2326
725 1 32 19.2 3.2 -11.7282
726 2 33.6 20.8 4.8 -9.7259
727 1 35.2 19.2 3.2 -11.7101
728 3 36.8 20.8 4.8 -11.234
729 4 38.4 19.2 3.2 -13.2746
730 2 40 20.8 4.8 -9.72441
731 1 41.6 19.2 3.2 -11.7093
732 2 43.2 20.8 4.8 -9.78132
733 4 44.8 19.2 3.2 -13.299
734 3 46.4 20.8 4.8 -11.2289
735 1 48 19.2 3.2 -11.748
736 3 49.6 20.8 4.8 -11.2744
737 1 0 22.4 3.2 -11.8284
738 3 1.6 24 4.8 -11.2417
739 1 3.2 22.4 3.2 -11.8412
740 3 4.8 24 4.8 -11.2391
741 1 6.4 22.4 3.2 -11.8554
742 2 8 24 4.8 -9.80369
743 1 9.6 22.4 3.2 -11.8409
744 3 11.2 24 4.8 -11.2032
745 1 12.8 22.4 3.2 -11.8295
746 3 14.4 24 4.8 -11.2636
747 4 16 22.4 3.2 -13.3778
748 2 17.6 24 4.8 -9.81264
749 2 19.2 22.4 3.2 -9.78939
750 4 20.8 24 4.8 -13.3436
751 2 22.4 22.4 3.2 -9.89619
752 2 24 24 4.8 -9.84002
753 2 25.6 22.4 3.2 -9.83621
754 2 27.2 24 4.8 -9.78912
755 4 28.8 22.4 3.2 -13.3181
756 2 30.4 24 4.8 -9.78907
757 4 32 22.4 3.2 -13.2625
758 3 33.6 24 4.8 -11.1956
759 1 35.2 22.4 3.2 -11.8169
760 3 36.8 24 4.8 -11.2016
761 1 38.4 22.4 3.2 -11.796
762 2 40 24 4.8 -9.74781
763 1 41.6 22.4 3.2 -11.7831
764 3 43.2 24 4.8 -11.268
765 1 44.8 22.4 3.2 -11.7895
766 3 46.4 24 4.8 -11.2732
767 4 48 22.4 3.2 -13.2889
768 3 49.6 24 4.8 -11.2394
769 1 0 25.6 3.2 -11.812
771 1 3.2 25.6 3.2 -11.8697
773 4 6.4 25.6 3.2 -13.3389
775 1 9.6 25.6 3.2 -11.8281
777 1 12.8 25.6 3.2 -11.8277
779 1 16 25.6 3.2 -11.7292
781 1 19.2 25.6 3.2 -11.7008
783 4 22.4 25.6 3.2 -13.3597
785 1 25.6 25.6 3.2 -11.8039
787 4 28.8 25.6 3.2 -13.2391
789 4 32 25.6 3.2 -13.3501
791 4 35.2 25.6 3.2 -13.2706
793 1 38.4 25.6 3.2 -11.742
795 1 41.6 25.6 3.2 -11.7537
797 1 44.8 25.6 3.2 -11.841
799 1 48 25.6 3.2 -11.8577
770 3 1.6 27.2 4.8 -11.2394
801 1 0 28.8 3.2 -11.7964
772 3 4.8 27.2 4.8 -11.3395
803 1 3.2 28.8 3.2 -11.7997
774 3 8 27.2 4.8 -11.2731
805 1 6.4 28.8 3.2 -11.8396
776 3 11.2 27.2 4.8 -11.2405
807 1 9.6 28.8 3.2 -11.8412
778 3 14.4 27.2 4.8 -11.2759
809 1 12.8 28.8 3.2 -11.842
780 3 17.6 27.2 4.8 -11.1939
811 1 16 28.8 3.2 -11.7993
782 2 20.8 27.2 4.8 -9.7844
813 1 19.2 28.8 3.2 -11.7974
784 3 24 27.2 4.8 -11.2628
815 1 22.4 28.8 3.2 -11.8412
817 4 25.6 28.8 3.2 -13.3017
786 3 27.2 27.2 4.8 -11.1912
819 1 28.8 28.8 3.2 -11.7196
788 2 30.4 27.2 4.8 -9.79106
821 2 32 28.8 3.2 -9.77817
790 2 33.6 27.2 4.8 -9.79086
823 1 35.2 28.8 3.2 -11.7201
792 2 36.8 27.2 4.8 -9.78882
825 4 38.4 28.8 3.2 -13.2545
794 2 40 27.2 4.8 -9.73013
827 1 41.6 28.8 3.2 -11.6895
796 3 43.2 27.2 4.8 -11.2953
829 4 44.8 28.8 3.2 -13.3147
798 3 46.4 27.2 4.8 -11.3688
831 4 48 28.8 3.2 -13.3355
800 3 49.6 27.2 4.8 -11.2397
802 2 1.6 30.4 4.8 -9.77517
833 1 0 32 3.2 -11.74
804 3 4.8 30.4 4.8 -11.2321
835 1 3.2 32 3.2 -11.7844
806 3 8 30.4 4.8 -11.2761
837 1 6.4 32 3.2 -11.7844
808 3 11.2 30.4 4.8 -11.2729
839 1 9.6 32 3.2 -11.828
810 3 14.4 30.4 4.8 -11.3338
841 1 12.8 32 3.2 -11.8545
812 3 17.6 30.4 4.8 -11.2702
843 4 16 32 3.2 -13.329
814 3 20.8 30.4 4.8 -11.235
845 4 19.2 32 3.2 -13.3318
816 3 24 30.4 4.8 -11.3366
847 1 22.4 32 3.2 -11.8269
849 1 25.6 32 3.2 -11.7844
818 2 27.2 30.4 4.8 -9.7815
851 1 28.8 32 3.2 -11.6771
820 2 30.4 30.4 4.8 -9.72876
853 4 32 32 3.2 -13.2881
822 2 33.6 30.4 4.8 -9.81885
855 1 35.2 32 3.2 -11.6504
824 2 36.8 30.4 4.8 -9.78438
857 2 38.4 32 3.2 -9.72617
826 4 40 30.4 4.8 -13.2108
859 4 41.6 32 3.2 -13.2031
828 3 43.2 30.4 4.8 -11.188
861 1 44.8 32 3.2 -11.7243
830 3 46.4 30.4 4.8 -11.2305
863 1 48 32 3.2 -11.7407
832 2 49.6 30.4 4.8 -9.74922
834 3 1.6 33.6 4.8 -11.2021
865 1 0 35.2 3.2 -11.7654
836 3 4.8 33.6 4.8 -11.2426
867 1 3.2 35.2 3.2 -11.8415
838 3 8 33.6 4.8 -11.2039
869 1 6.4 35.2 3.2 -11.8258
840 3 11.2 33.6 4.8 -11.3056
871 1 9.6 35.2 3.2 -11.8031
842 3 14.4 33.6 4.8 -11.3221
873 4 12.8 35.2 3.2 -13.3031
844 2 17.6 33.6 4.8 -9.87303
875 4 16 35.2 3.2 -13.2889
846 3 20.8 33.6 4.8 -11.2969
877 4 19.2 35.2 3.2 -13.2868
848 3 24 33.6 4.8 -11.2604
879 1 22.4 35.2 3.2 -11.6639
881 1 25.6 35.2 3.2 -11.7181
850 3 27.2 33.6 4.8 -11.1957
883 1 28.8 35.2 3.2 -11.7411
852 2 30.4 33.6 4.8 -9.73282
885 2 32 35.2 3.2 -9.81209
854 2 33.6 33.6 4.8 -9.78998
887 2 35.2 35.2 3.2 -9.76511
856 1 36.8 33.6 4.8 -11.6221
889 4 38.4 35.2 3.2 -13.215
858 1 40 33.6 4.8 -11.6094
891 2 41.6 35.2 3.2 -9.82465
860 2 43.2 33.6 4.8 -9.75856
893 1 44.8 35.2 3.2 -11.7901
862 3 46.4 33.6 4.8 -11.203
895 1 48 35.2 3.2 -11.7708
864 2 49.6 33.6 4.8 -9.74582
866 3 1.6 36.8 4.8 -11.2405
897 4 0 38.4 3.2 -13.3313
868 3 4.8 36.8 4.8 -11.2387
899 1 3.2 38.4 3.2 -11.8018
870 3 8 36.8 4.8 -11.2689
901 4 6.4 38.4 3.2 -13.3301
872 2 11.2 36.8 4.8 -9.79189
903 4 9.6 38.4 3.2 -13.2952
874 4 14.4 36.8 4.8 -13.2879
905 2 12.8 38.4 3.2 -9.73602
876 3 17.6 36.8 4.8 -11.2738
907 4 16 38.4 3.2 -13.2877
878 2 20.8 36.8 4.8 -9.82069
909 4 19.2 38.4 3.2 -13.2827
880 4 24 36.8 4.8 -13.1929
911 2 22.4 38.4 3.2 -9.76516
913 2 25.6 38.4 3.2 -9.76466
882 2 27.2 36.8 4.8 -9.81506
915 2 28.8 38.4 3.2 -9.79183
884 2 30.4 36.8 4.8 -9.81864
917 3 32 38.4 3.2 -11.2655
886 4 33.6 36.8 4.8 -13.3258
919 3 35.2 38.4 3.2 -11.2716
888 4 36.8 36.8 4.8 -13.2869
921 3 38.4 38.4 3.2 -11.294
890 4 40 36.8 4.8 -13.3125
923 2 41.6 38.4 3.2 -9.86482
892 3 43.2 36.8 4.8 -11.2847
925 4 44.8 38.4 3.2 -13.3555
894 3 46.4 36.8 4.8 -11.3036
927 4 48 38.4 3.2 -13.3258
896 3 49.6 36.8 4.8 -11.2335
898 2 1.6 40 4.8 -9.78639
929 2 0 41.6 3.2 -9.80416
900 3 4.8 40 4.8 -11.2287
931 4 3.2 41.6 3.2 -13.2635
902 2 8 40 4.8 -9.81764
933 4 6.4 41.6 3.2 -13.2825
904 1 11.2 40 4.8 -11.7111
935 2 9.6 41.6 3.2 -9.79102
906 1 14.4 40 4.8 -11.7193
937 3 12.8 41.6 3.2 -11.1971
908 2 17.6 40 4.8 -9.80348
939 3 16 41.6 3.2 -11.2333
910 1 20.8 40 4.8 -11.7127
941 2 19.2 41.6 3.2 -9.75844
912 1 24 40 4.8 -11.7554
943 3 22.4 41.6 3.2 -11.1997
945 3 25.6 41.6 3.2 -11.274
914 1 27.2 40 4.8 -11.7749
947 3 28.8 41.6 3.2 -11.2403
916 1 30.4 40 4.8 -11.8139
949 3 32 41.6 3.2 -11.2764
918 1 33.6 40 4.8 -11.7958
951 3 35.2 41.6 3.2 -11.2733
920 1 36.8 40 4.8 -11.7974
953 3 38.4 41.6 3.2 -11.3032
922 4 40 40 4.8 -13.3217
955 2 41.6 41.6 3.2 -9.84566
924 4 43.2 40 4.8 -13.3594
957 3 44.8 41.6 3.2 -11.2865
926 3 46.4 40 4.8 -11.2411
959 2 48 41.6 3.2 -9.86184
928 2 49.6 40 4.8 -9.86458
930 4 1.6 43.2 4.8 -13.2479
961 4 0 44.8 3.2 -13.3103
932 4 4.8 43.2 4.8 -13.2944
963 2 3.2 44.8 3.2 -9.79138
934 4 8 43.2 4.8 -13.3155
965 2 6.4 44.8 3.2 -9.82137
936 1 11.2 43.2 4.8 -11.7588
967 3 9.6 44.8 3.2 -11.2658
938 1 14.4 43.2 4.8 -11.7801
969 3 12.8 44.8 3.2 -11.2429
940 1 17.6 43.2 4.8 -11.8045
971 3 16 44.8 3.2 -11.2045
942 1 20.8 43.2 4.8 -11.7936
973 3 19.2 44.8 3.2 -11.1993
944 1 24 43.2 4.8 -11.8415
975 3 22.4 44.8 3.2 -11.2761
977 3 25.6 44.8 3.2 -11.2414
946 1 27.2 43.2 4.8 -11.8416
979 3 28.8 44.8 3.2 -11.2417
948 1 30.4 43.2 4.8 -11.8122
981 3 32 44.8 3.2 -11.2378
950 1 33.6 43.2 4.8 -11.8307
983 3 35.2 44.8 3.2 -11.3094
952 4 36.8 43.2 4.8 -13.2805
985 3 38.4 44.8 3.2 -11.2741
954 1 40 43.2 4.8 -11.7558
987 3 41.6 44.8 3.2 -11.1945
956 4 43.2 43.2 4.8 -13.3265
989 3 44.8 44.8 3.2 -11.2709
958 4 46.4 43.2 4.8 -13.3023
991 2 48 44.8 3.2 -9.76074
960 2 49.6 43.2 4.8 -9.81432
962 4 1.6 46.4 4.8 -13.329
993 3 0 48 3.2 -11.2303
964 1 4.8 46.4 4.8 -11.7652
995 3 3.2 48 3.2 -11.268
966 4 8 46.4 4.8 -13.2611
997 2 6.4 48 3.2 -9.8083
968 1 11.2 46.4 4.8 -11.8042
999 3 9.6 48 3.2 -11.2362
970 1 14.4 46.4 4.8 -11.7682
1001 3 12.8 48 3.2 -11.1642
972 1 17.6 46.4 4.8 -11.7658
1003 2 16 48 3.2 -9.70683
974 4 20.8 46.4 4.8 -13.3399
1005 3 19.2 48 3.2 -11.2007
976 1 24 46.4 4.8 -11.8698
1007 3 22.4 48 3.2 -11.2736
1009 3 25.6 48 3.2 -11.2394
978 1 27.2 46.4 4.8 -11.8415
1011 3 28.8 48 3.2 -11.2759
980 1 30.4 46.4 4.8 -11.7962
1013 3 32 48 3.2 -11.2397
982 1 33.6 46.4 4.8 -11.814
1015 3 35.2 48 3.2 -11.2417
984 1 36.8 46.4 4.8 -11.8436
1017 3 38.4 48 3.2 -11.2394
986 1 40 46.4 4.8 -11.7864
1019 2 41.6 48 3.2 -9.80379
988 4 43.2 46.4 4.8 -13.3053
1021 3 44.8 48 3.2 -11.1631
990 1 46.4 46.4 4.8 -11.7209
1023 2 48 48 3.2 -9.74712
992 4 49.6 46.4 4.8 -13.2956
994 1 1.6 49.6 4.8 -11.8695
996 1 4.8 49.6 4.8 -11.7957
998 1 8 49.6 4.8 -11.7832
1000 1 11.2 49.6 4.8 -11.7983
1002 1 14.4 49.6 4.8 -11.7506
1004 1 17.6 49.6 4.8 -11.7506
1006 1 20.8 49.6 4.8 -11.8025
1008 4 24 49.6 4.8 -13.282
1010 1 27.2 49.6 4.8 -11.8422
1012 4 30.4 49.6 4.8 -13.3354
1014 1 33.6 49.6 4.8 -11.7983
1016 1 36.8 49.6 4.8 -11.8554
1018 1 40 49.6 4.8 -11.8419
1020 1 43.2 49.6 4.8 -11.7869
1022 1 46.4 49.6 4.8 -11.7393
1024 1 49.6 49.6 4.8 -11.7982
1025 3 0 0 6.4 -11.24
1026 1 1.6 1.6 8 -11.7873
1027 3 3.2 0 6.4 -11.2737
1028 1 4.8 1.6 8 -11.7869
1029 3 6.4 0 6.4 -11.2364
1030 1 8 1.6 8 -11.7978
1031 3 9.6 0 6.4 -11.2371
1032 1 11.2 1.6 8 -11.8282
1033 3 12.8 0 6.4 -11.2384
1034 4 14.4 1.6 8 -13.3054
1035 3 16 0 6.4 -11.2018
1036 1 17.6 1.6 8 -11.7615
1037 3 19.2 0 6.4 -11.1968
1038 4 20.8 1.6 8 -13.2607
1039 2 22.4 0 6.4 -9.78326
1040 1 24 1.6 8 -11.7481
1041 3 25.6 0 6.4 -11.2364
1042 4 27.2 1.6 8 -13.3305
1043 3 28.8 0 6.4 -11.301
1044 4 30.4 1.6 8 -13.2938
1045 2 32 0 6.4 -9.77856
1046 1 33.6 1.6 8 -11.7623
1047 3 35.2 0 6.4 -11.2013
1048 1 36.8 1.6 8 -11.791
1049 3 38.4 0 6.4 -11.2737
1050 1 40 1.6 8 -11.744
1051 3 41.6 0 6.4 -11.1971
1052 1 43.2 1.6 8 -11.681
1053 2 44.8 0 6.4 -9.68989
1054 1 46.4 1.6 8 -11.7341
1055 3 48 0 6.4 -11.2034
1056 1 49.6 1.6 8 -11.812
1057 3 0 3.2 6.4 -11.242
1058 1 1.6 4.8 8 -11.8121
1059 3 3.2 3.2 6.4 -11.2036
1060 1 4.8 4.8 8 -11.8416
1061 3 6.4 3.2 6.4 -11.2732
1062 1 8 4.8 8 -11.7677
1063 2 9.6 3.2 6.4 -9.77321
1064 1 11.2 4.8 8 -11.77
1065 3 12.8 3.2 6.4 -11.2708
1066 4 14.4 4.8 8 -13.3272
1067 3 16 3.2 6.4 -11.2706
1068 1 17.6 4.8 8 -11.7606
1069 3 19.2 3.2 6.4 -11.2683
1070 4 20.8 4.8 8 -13.3092
1071 3 22.4 3.2 6.4 -11.1919
1072 4 24 4.8 8 -13.2756
1073 3 25.6 3.2 6.4 -11.2321
1074 4 27.2 4.8 8 -13.3161
1075 2 28.8 3.2 6.4 -9.81141
1076 1 30.4 4.8 8 -11.7211
1077 3 32 3.2 6.4 -11.1943
1078 4 33.6 4.8 8 -13.2708
1079 3 35.2 3.2 6.4 -11.2691
1080 4 36.8 4.8 8 -13.328
1081 3 38.4 3.2 6.4 -11.2331
1082 4 40 4.8 8 -13.3221
1083 2 41.6 3.2 6.4 -9.75127
1084 4 43.2 4.8 8 -13.3384
1085 4 44.8 3.2 6.4 -13.1036
1086 1 46.4 4.8 8 -11.7993
1087 3 48 3.2 6.4 -11.2023
1088 1 49.6 4.8 8 -11.8121
1089 3 0 6.4 6.4 -11.2397
1090 1 1.6 8 8 -11.8259
1091 3 3.2 6.4 6.4 -11.2759
1092 4 4.8 8 8 -13.365
1093 3 6.4 6.4 6.4 -11.2726
1094 1 8 8 8 -11.812
1095 2 9.6 6.4 6.4 -9.74902
1096 4 11.2 8 8 -13.324
1097 3 12.8 6.4 6.4 -11.2693
1098 4 14.4 8 8 -13.3496
1099 3 16 6.4 6.4 -11.338
1100 4 17.6 8 8 -13.329
1101 3 19.2 6.4 6.4 -11.2686
1102 4 20.8 8 8 -13.2348
1103 2 22.4 6.4 6.4 -9.78176