ITEM: TIMESTEP
0
ITEM: NUMBER OF ATOMS
8192
ITEM: BOX BOUNDS pp pp pp
0.0000000000000000e+00 5.1200000000000003e+01
0.0000000000000000e+00 5.1200000000000003e+01
0.0000000000000000e+00 5.1200000000000003e+01
ITEM: ATOMS id type x y z c_eng
1 3 0 0 0 -11.24
2 1 1.6 1.6 1.6 -11.7986
3 3 3.2 0 0 -11.201
4 1 4.8 1.6 1.6 -11.828
5 3 6.4 0 0 -11.2333
6 1 8 1.6 1.6 -11.8282
7 3 9.6 0 0 -11.3404
8 1 11.2 1.6 1.6 -11.8125
9 3 12.8 0 0 -11.2017
10 1 14.4 1.6 1.6 -11.8119
11 3 16 0 0 -11.2722
12 1 17.6 1.6 1.6 -11.828
13 3 19.2 0 0 -11.2707
14 1 20.8 1.6 1.6 -11.828
15 3 22.4 0 0 -11.3087
16 1 24 1.6 1.6 -11.8416
17 3 25.6 0 0 -11.2724
18 1 27.2 1.6 1.6 -11.8259
19 3 28.8 0 0 -11.2759
20 1 30.4 1.6 1.6 -11.8416
21 3 32 0 0 -11.2039
22 1 33.6 1.6 1.6 -11.7986
23 2 35.2 0 0 -9.74927
24 4 36.8 1.6 1.6 -13.3321
25 3 38.4 0 0 -11.2375
26 1 40 1.6 1.6 -11.7941
27 2 41.6 0 0 -9.70671
28 1 43.2 1.6 1.6 -11.74
29 3 44.8 0 0 -11.2005
30 1 46.4 1.6 1.6 -11.8094
31 3 48 0 0 -11.3091
32 4 49.6 1.6 1.6 -13.3321
33 2 0 3.2 0 -9.74197
34 1 1.6 4.8 1.6 -11.7808
35 3 3.2 3.2 0 -11.2017
36 1 4.8 4.8 1.6 -11.8121
37 2 6.4 3.2 0 -9.80001
38 1 8 4.8 1.6 -11.7537
39 3 9.6 3.2 0 -11.2966
40 4 11.2 4.8 1.6 -13.296
41 3 12.8 3.2 0 -11.3369
42 1 14.4 4.8 1.6 -11.8708
43 3 16 3.2 0 -11.2372
44 1 17.6 4.8 1.6 -11.8278
45 3 19.2 3.2 0 -11.2761
46 1 20.8 4.8 1.6 -11.8557
47 3 22.4 3.2 0 -11.3091
48 4 24 4.8 1.6 -13.2825
49 3 25.6 3.2 0 -11.2358
50 1 27.2 4.8 1.6 -11.7706
51 3 28.8 3.2 0 -11.242
52 1 30.4 4.8 1.6 -11.8123
53 3 32 3.2 0 -11.242
54 1 33.6 4.8 1.6 -11.8281
55 3 35.2 3.2 0 -11.24
56 1 36.8 4.8 1.6 -11.8696
57 3 38.4 3.2 0 -11.2384
58 1 40 4.8 1.6 -11.8281
59 2 41.6 3.2 0 -9.71257
60 4 43.2 4.8 1.6 -13.2532
61 2 44.8 3.2 0 -9.71939
62 1 46.4 4.8 1.6 -11.7852
63 3 48 3.2 0 -11.2375
64 1 49.6 4.8 1.6 -11.7984
65 3 0 6.4 0 -11.2387
66 1 1.6 8 1.6 -11.8279
67 3 3.2 6.4 0 -11.242
68 1 4.8 8 1.6 -11.8436
69 3 6.4 6.4 0 -11.2387
70 4 8 8 1.6 -13.3411
71 3 9.6 6.4 0 -11.2324
72 1 11.2 8 1.6 -11.7264
73 3 12.8 6.4 0 -11.2629
74 4 14.4 8 1.6 -13.2759
75 2 16 6.4 0 -9.83737
76 1 17.6 8 1.6 -11.829
77 3 19.2 6.4 0 -11.2729
78 1 20.8 8 1.6 -11.8121
79 3 22.4 6.4 0 -11.2002
80 1 24 8 1.6 -11.7703
81 2 25.6 6.4 0 -9.74221
82 1 27.2 8 1.6 -11.7962
83 3 28.8 6.4 0 -11.2045
84 1 30.4 8 1.6 -11.8
85 3 32 6.4 0 -11.1642
86 1 33.6 8 1.6 -11.7527
87 3 35.2 6.4 0 -11.1645
88 1 36.8 8 1.6 -11.8121
89 3 38.4 6.4 0 -11.2048
90 1 40 8 1.6 -11.812
91 3 41.6 6.4 0 -11.2026
92 1 43.2 8 1.6 -11.7896
93 2 44.8 6.4 0 -9.74962
94 4 46.4 8 1.6 -13.247
95 3 48 6.4 0 -11.2384
96 1 49.6 8 1.6 -11.7999
97 3 0 9.6 0 -11.1585
98 1 1.6 11.2 1.6 -11.7753
99 3 3.2 9.6 0 -11.2051
100 1 4.8 11.2 1.6 -11.7724
101 3 6.4 9.6 0 -11.2379
102 4 8 11.2 1.6 -13.2436
103 2 9.6 9.6 0 -9.68124
104 1 11.2 11.2 1.6 -11.6678
105 4 12.8 9.6 0 -13.1162
106 2 14.4 11.2 1.6 -9.80596
107 2 16 9.6 0 -9.82198
108 1 17.6 11.2 1.6 -11.75
109 3 19.2 9.6 0 -11.1972
110 1 20.8 11.2 1.6 -11.7139
111 2 22.4 9.6 0 -9.67734
112 1 24 11.2 1.6 -11.7066
113 3 25.6 9.6 0 -11.1251
114 1 27.2 11.2 1.6 -11.8266
115 3 28.8 9.6 0 -11.2007
116 4 30.4 11.2 1.6 -13.3383
117 2 32 9.6 0 -9.77529
118 1 33.6 11.2 1.6 -11.754
119 2 35.2 9.6 0 -9.74687
120 1 36.8 11.2 1.6 -11.7727
121 3 38.4 9.6 0 -11.1635
122 1 40 11.2 1.6 -11.8314
123 3 41.6 9.6 0 -11.2032
124 4 43.2 11.2 1.6 -13.2955
125 2 44.8 9.6 0 -9.75641
126 4 46.4 11.2 1.6 -13.2496
127 2 48 9.6 0 -9.7905
128 1 49.6 11.2 1.6 -11.7418
129 2 0 12.8 0 -9.84172
130 2 1.6 14.4 1.6 -9.81093
131 2 3.2 12.8 0 -9.8348
132 2 4.8 14.4 1.6 -9.80634
133 3 6.4 12.8 0 -11.256
134 1 8 14.4 1.6 -11.6685
135 2 9.6 12.8 0 -9.69883
136 1 11.2 14.4 1.6 -11.6128
137 2 12.8 12.8 0 -9.72339
138 2 14.4 14.4 1.6 -9.87952
139 4 16 12.8 0 -13.3255
140 4 17.6 14.4 1.6 -13.23
141 2 19.2 12.8 0 -9.70104
142 1 20.8 14.4 1.6 -11.6667
143 4 22.4 12.8 0 -13.0648
144 4 24 14.4 1.6 -13.2177
145 2 25.6 12.8 0 -9.72484
146 4 27.2 14.4 1.6 -13.2486
147 3 28.8 12.8 0 -11.2672
148 1 30.4 14.4 1.6 -11.744
149 3 32 12.8 0 -11.1958
150 1 33.6 14.4 1.6 -11.6883
151 2 35.2 12.8 0 -9.80891
152 4 36.8 14.4 1.6 -13.2033
153 3 38.4 12.8 0 -11.2633
154 4 40 14.4 1.6 -13.3068
155 3 41.6 12.8 0 -11.298
156 4 43.2 14.4 1.6 -13.352
157 2 44.8 12.8 0 -9.8464
158 4 46.4 14.4 1.6 -13.2793
159 2 48 12.8 0 -9.78941
160 2 49.6 14.4 1.6 -9.81764
161 1 0 16 0 -11.762
162 3 1.6 17.6 1.6 -11.2021
163 4 3.2 16 0 -13.3531
164 3 4.8 17.6 1.6 -11.2677
165 4 6.4 16 0 -13.3537
166 2 8 17.6 1.6 -9.79288
167 4 9.6 16 0 -13.2103
168 2 11.2 17.6 1.6 -9.76739
169 4 12.8 16 0 -13.3387
170 2 14.4 17.6 1.6 -9.85899
171 3 16 16 0 -11.2713
172 4 17.6 17.6 1.6 -13.297
173 4 19.2 16 0 -13.2469
174 2 20.8 17.6 1.6 -9.76584
175 2 22.4 16 0 -9.73479
176 2 24 17.6 1.6 -9.82021
177 4 25.6 16 0 -13.2394
178 4 27.2 17.6 1.6 -13.2272
179 2 28.8 16 0 -9.76327
180 2 30.4 17.6 1.6 -9.7937
181 4 32 16 0 -13.292
182 2 33.6 17.6 1.6 -9.81848
183 3 35.2 16 0 -11.1305
184 4 36.8 17.6 1.6 -13.2929
185 4 38.4 16 0 -13.2925
186 3 40 17.6 1.6 -11.1806
187 2 41.6 16 0 -9.85589
188 3 43.2 17.6 1.6 -11.2177
189 2 44.8 16 0 -9.85905
190 4 46.4 17.6 1.6 -13.2729
191 4 48 16 0 -13.3241
192 3 49.6 17.6 1.6 -11.2311
193 1 0 19.2 0 -11.8033
194 3 1.6 20.8 1.6 -11.2359
195 1 3.2 19.2 0 -11.8116
196 3 4.8 20.8 1.6 -11.2339
197 1 6.4 19.2 0 -11.8127
198 3 8 20.8 1.6 -11.2347
199 1 9.6 19.2 0 -11.8039
200 2 11.2 20.8 1.6 -9.81342
201 1 12.8 19.2 0 -11.7719
202 2 14.4 20.8 1.6 -9.81628
203 1 16 19.2 0 -11.7525
204 2 17.6 20.8 1.6 -9.75868
205 4 19.2 19.2 0 -13.221
206 3 20.8 20.8 1.6 -11.2265
207 4 22.4 19.2 0 -13.2705
208 3 24 20.8 1.6 -11.1906
209 4 25.6 19.2 0 -13.2269
210 3 27.2 20.8 1.6 -11.2993
211 1 28.8 19.2 0 -11.7466
212 3 30.4 20.8 1.6 -11.3366
213 4 32 19.2 0 -13.2941
214 3 33.6 20.8 1.6 -11.3666
215 4 35.2 19.2 0 -13.3381
216 3 36.8 20.8 1.6 -11.2294
217 4 38.4 19.2 0 -13.301
218 3 40 20.8 1.6 -11.2341
219 4 41.6 19.2 0 -13.3201
220 2 43.2 20.8 1.6 -9.75109
221 4 44.8 19.2 0 -13.2707
222 2 46.4 20.8 1.6 -9.81341
223 4 48 19.2 0 -13.3247
224 3 49.6 20.8 1.6 -11.3329
225 4 0 22.4 0 -13.3242
226 4 1.6 24 1.6 -13.1967
227 4 3.2 22.4 0 -13.2066
228 2 4.8 24 1.6 -9.75213
229 1 6.4 22.4 0 -11.7875
230 3 8 24 1.6 -11.2387
231 1 9.6 22.4 0 -11.8279
232 3 11.2 24 1.6 -11.2371
233 4 12.8 22.4 0 -13.3101
234 3 14.4 24 1.6 -11.1594
235 1 16 22.4 0 -11.7548
236 2 17.6 24 1.6 -9.78617
237 1 19.2 22.4 0 -11.756
238 3 20.8 24 1.6 -11.265
239 1 22.4 22.4 0 -11.7698
240 2 24 24 1.6 -9.8112
241 1 25.6 22.4 0 -11.8298
242 3 27.2 24 1.6 -11.2973
243 1 28.8 22.4 0 -11.8413
244 3 30.4 24 1.6 -11.2736
245 1 32 22.4 0 -11.8256
246 3 33.6 24 1.6 -11.2397
247 1 35.2 22.4 0 -11.8414
248 3 36.8 24 1.6 -11.2402
249 1 38.4 22.4 0 -11.828
250 3 40 24 1.6 -11.1648
251 1 41.6 22.4 0 -11.7567
252 2 43.2 24 1.6 -9.71428
253 4 44.8 22.4 0 -13.2056
254 3 46.4 24 1.6 -11.2322
255 4 48 22.4 0 -13.3744
256 3 49.6 24 1.6 -11.2664
257 1 0 25.6 0 -11.7656
259 1 3.2 25.6 0 -11.7253
261 1 6.4 25.6 0 -11.7938
263 1 9.6 25.6 0 -11.7962
265 1 12.8 25.6 0 -11.8095
267 1 16 25.6 0 -11.7982
269 4 19.2 25.6 0 -13.3718
271 4 22.4 25.6 0 -13.3516
273 4 25.6 25.6 0 -13.3555
275 4 28.8 25.6 0 -13.335
277 1 32 25.6 0 -11.8282
279 1 35.2 25.6 0 -11.8556
281 1 38.4 25.6 0 -11.8121
283 1 41.6 25.6 0 -11.7679
285 1 44.8 25.6 0 -11.77
287 1 48 25.6 0 -11.8573
258 3 1.6 27.2 1.6 -11.164
289 1 0 28.8 0 -11.8418
260 3 4.8 27.2 1.6 -11.2373
291 1 3.2 28.8 0 -11.7682
262 3 8 27.2 1.6 -11.2729
293 4 6.4 28.8 0 -13.3112
264 2 11.2 27.2 1.6 -9.74065
295 1 9.6 28.8 0 -11.8072
266 3 14.4 27.2 1.6 -11.167
297 1 12.8 28.8 0 -11.7938
268 2 17.6 27.2 1.6 -9.68704
299 1 16 28.8 0 -11.7964
270 3 20.8 27.2 1.6 -11.2654
301 1 19.2 28.8 0 -11.7342
272 2 24 27.2 1.6 -9.81253
303 1 22.4 28.8 0 -11.7848
305 1 25.6 28.8 0 -11.8118
274 2 27.2 27.2 1.6 -9.80474
307 1 28.8 28.8 0 -11.8415
276 3 30.4 27.2 1.6 -11.2394
309 1 32 28.8 0 -11.8119
278 3 33.6 27.2 1.6 -11.2426
311 1 35.2 28.8 0 -11.8437
280 3 36.8 27.2 1.6 -11.2394
313 1 38.4 28.8 0 -11.8317
282 2 40 27.2 1.6 -9.83003
315 4 41.6 28.8 0 -13.3548
284 3 43.2 27.2 1.6 -11.1953
317 1 44.8 28.8 0 -11.8974
286 3 46.4 27.2 1.6 -11.3078
319 4 48 28.8 0 -13.3828
288 3 49.6 27.2 1.6 -11.3076
290 2 1.6 30.4 1.6 -9.74088
321 4 0 32 0 -13.358
292 2 4.8 30.4 1.6 -9.71244
323 1 3.2 32 0 -11.7658
294 3 8 30.4 1.6 -11.2364
325 1 6.4 32 0 -11.7852
296 3 11.2 30.4 1.6 -11.2687
327 4 9.6 32 0 -13.3057
298 3 14.4 30.4 1.6 -11.3033
329 4 12.8 32 0 -13.3764
300 2 17.6 30.4 1.6 -9.74605
331 4 16 32 0 -13.3569
302 2 20.8 30.4 1.6 -9.71999
333 1 19.2 32 0 -11.7983
304 3 24 30.4 1.6 -11.2362
335 1 22.4 32 0 -11.7937
337 4 25.6 32 0 -13.3349
306 3 27.2 30.4 1.6 -11.2375
339 1 28.8 32 0 -11.8016
308 3 30.4 30.4 1.6 -11.3084
341 1 32 32 0 -11.797
310 3 33.6 30.4 1.6 -11.1999
343 4 35.2 32 0 -13.3264
312 3 36.8 30.4 1.6 -11.3374
345 4 38.4 32 0 -13.3748
314 3 40 30.4 1.6 -11.3161
347 4 41.6 32 0 -13.339
316 3 43.2 30.4 1.6 -11.3572
349 4 44.8 32 0 -13.2621
318 3 46.4 30.4 1.6 -11.3005
351 1 48 32 0 -11.8421
320 3 49.6 30.4 1.6 -11.3039
322 3 1.6 33.6 1.6 -11.2326
353 4 0 35.2 0 -13.4229
324 3 4.8 33.6 1.6 -11.1245
355 1 3.2 35.2 0 -11.8257
326 2 8 33.6 1.6 -9.77668
357 1 6.4 35.2 0 -11.7844
328 2 11.2 33.6 1.6 -9.78238
359 1 9.6 35.2 0 -11.7601
330 3 14.4 33.6 1.6 -11.2635
361 1 12.8 35.2 0 -11.754
332 3 17.6 33.6 1.6 -11.337
363 1 16 35.2 0 -11.8572
334 3 20.8 33.6 1.6 -11.234
365 1 19.2 35.2 0 -11.8427
336 3 24 33.6 1.6 -11.267
367 1 22.4 35.2 0 -11.8302
369 4 25.6 35.2 0 -13.3236
338 2 27.2 33.6 1.6 -9.79032
371 4 28.8 35.2 0 -13.2286
340 3 30.4 33.6 1.6 -11.2597
373 4 32 35.2 0 -13.3309
342 3 33.6 33.6 1.6 -11.2895
375 2 35.2 35.2 0 -9.88002
344 2 36.8 33.6 1.6 -9.86616
377 2 38.4 35.2 0 -9.90941
346 2 40 33.6 1.6 -9.88903
379 2 41.6 35.2 0 -9.78885
348 4 43.2 33.6 1.6 -13.2043
381 4 44.8 35.2 0 -13.2413
350 2 46.4 33.6 1.6 -9.78884
383 4 48 35.2 0 -13.3641
352 3 49.6 33.6 1.6 -11.3033
354 3 1.6 36.8 1.6 -11.3033
385 4 0 38.4 0 -13.3671
356 2 4.8 36.8 1.6 -9.74939
387 1 3.2 38.4 0 -11.7874
358 3 8 36.8 1.6 -11.158
389 1 6.4 38.4 0 -11.7329
360 2 11.2 36.8 1.6 -9.75436
391 1 9.6 38.4 0 -11.7778
362 2 14.4 36.8 1.6 -9.78286
393 4 12.8 38.4 0 -13.2675
364 3 17.6 36.8 1.6 -11.2855
395 4 16 38.4 0 -13.3778
366 2 20.8 36.8 1.6 -9.88531
397 4 19.2 38.4 0 -13.3874
368 2 24 36.8 1.6 -9.8435
399 4 22.4 38.4 0 -13.2573
401 2 25.6 38.4 0 -9.85457
370 4 27.2 36.8 1.6 -13.2399
403 2 28.8 38.4 0 -9.84476
372 4 30.4 36.8 1.6 -13.3312
405 3 32 38.4 0 -11.3011
374 4 33.6 36.8 1.6 -13.3304
407 3 35.2 38.4 0 -11.3318
376 4 36.8 36.8 1.6 -13.3718
409 3 38.4 38.4 0 -11.3331
378 4 40 36.8 1.6 -13.3515
411 3 41.6 38.4 0 -11.2264
380 4 43.2 36.8 1.6 -13.2868
413 2 44.8 38.4 0 -9.83343
382 2 46.4 36.8 1.6 -9.84565
415 4 48 38.4 0 -13.4209
384 3 49.6 36.8 1.6 -11.3625
386 2 1.6 40 1.6 -9.84973
417 4 0 41.6 0 -13.3473
388 4 4.8 40 1.6 -13.1638
419 4 3.2 41.6 0 -13.2627
390 2 8 40 1.6 -9.78755
421 4 6.4 41.6 0 -13.2597
392 2 11.2 40 1.6 -9.78876
423 4 9.6 41.6 0 -13.3241
394 2 14.4 40 1.6 -9.80989
425 2 12.8 41.6 0 -9.83754
396 4 17.6 40 1.6 -13.3921
427 2 16 41.6 0 -9.86284
398 4 20.8 40 1.6 -13.2773
429 2 19.2 41.6 0 -9.78742
400 4 24 40 1.6 -13.3238
431 4 22.4 41.6 0 -13.1731
433 2 25.6 41.6 0 -9.81622
402 4 27.2 40 1.6 -13.2989
435 3 28.8 41.6 0 -11.1933
404 1 30.4 40 1.6 -11.8286
437 3 32 41.6 0 -11.2764
406 1 33.6 40 1.6 -11.8694
439 3 35.2 41.6 0 -11.2733
408 4 36.8 40 1.6 -13.3305
441 3 38.4 41.6 0 -11.235
410 1 40 40 1.6 -11.7512
443 2 41.6 41.6 0 -9.67724
412 1 43.2 40 1.6 -11.6906
445 2 44.8 41.6 0 -9.72412
414 1 46.4 40 1.6 -11.6883
447 2 48 41.6 0 -9.79259
416 2 49.6 40 1.6 -9.82255
418 2 1.6 43.2 1.6 -9.84467
449 2 0 44.8 0 -9.79269
420 2 4.8 43.2 1.6 -9.83797
451 4 3.2 44.8 0 -13.2428
422 2 8 43.2 1.6 -9.80588
453 4 6.4 44.8 0 -13.2904
424 4 11.2 43.2 1.6 -13.3134
455 2 9.6 44.8 0 -9.73709
426 4 14.4 43.2 1.6 -13.2868
457 2 12.8 44.8 0 -9.72883
428 4 17.6 43.2 1.6 -13.2951
459 2 16 44.8 0 -9.78535
430 1 20.8 43.2 1.6 -11.7304
461 2 19.2 44.8 0 -9.78801
432 4 24 43.2 1.6 -13.2737
463 2 22.4 44.8 0 -9.72563
465 3 25.6 44.8 0 -11.1598
434 1 27.2 43.2 1.6 -11.846
467 2 28.8 44.8 0 -9.83336
436 4 30.4 43.2 1.6 -13.3389
469 3 32 44.8 0 -11.2743
438 1 33.6 43.2 1.6 -11.8556
471 3 35.2 44.8 0 -11.2761
440 1 36.8 43.2 1.6 -11.8095
473 3 38.4 44.8 0 -11.2381
442 1 40 43.2 1.6 -11.7395
475 3 41.6 44.8 0 -11.2384
444 1 43.2 43.2 1.6 -11.7345
477 3 44.8 44.8 0 -11.3362
446 4 46.4 43.2 1.6 -13.3054
479 3 48 44.8 0 -11.3607
448 4 49.6 43.2 1.6 -13.3228
450 4 1.6 46.4 1.6 -13.2721
481 3 0 48 0 -11.2364
452 4 4.8 46.4 1.6 -13.3011
483 2 3.2 48 0 -9.78165
454 1 8 46.4 1.6 -11.7667
485 3 6.4 48 0 -11.2307
456 1 11.2 46.4 1.6 -11.7254
487 3 9.6 48 0 -11.2697
458 1 14.4 46.4 1.6 -11.7846
489 3 12.8 48 0 -11.2411
460 4 17.6 46.4 1.6 -13.2628
491 3 16 48 0 -11.302
462 1 20.8 46.4 1.6 -11.7127
493 2 19.2 48 0 -9.81911
464 1 24 46.4 1.6 -11.8149
495 3 22.4 48 0 -11.1992
497 2 25.6 48 0 -9.8
466 4 27.2 46.4 1.6 -13.3355
499 3 28.8 48 0 -11.2312
468 1 30.4 46.4 1.6 -11.8594
501 3 32 48 0 -11.2764
470 1 33.6 46.4 1.6 -11.8415
503 3 35.2 48 0 -11.2021
472 1 36.8 46.4 1.6 -11.812
505 3 38.4 48 0 -11.2764
474 1 40 46.4 1.6 -11.842
507 3 41.6 48 0 -11.2376
476 1 43.2 46.4 1.6 -11.8839
509 3 44.8 48 0 -11.3089
478 4 46.4 46.4 1.6 -13.402
511 3 48 48 0 -11.307
480 4 49.6 46.4 1.6 -13.3512
482 1 1.6 49.6 1.6 -11.8279
484 1 4.8 49.6 1.6 -11.8169
486 4 8 49.6 1.6 -13.3333
488 1 11.2 49.6 1.6 -11.8171
490 1 14.4 49.6 1.6 -11.8258
492 4 17.6 49.6 1.6 -13.3272
494 4 20.8 49.6 1.6 -13.2787
496 1 24 49.6 1.6 -11.8422
498 4 27.2 49.6 1.6 -13.3626
500 1 30.4 49.6 1.6 -11.8556
502 1 33.6 49.6 1.6 -11.7808
504 1 36.8 49.6 1.6 -11.814
506 1 40 49.6 1.6 -11.812
508 1 43.2 49.6 1.6 -11.8121
510 1 46.4 49.6 1.6 -11.8554
512 1 49.6 49.6 1.6 -11.8839
513 3 0 0 3.2 -11.3042
514 1 1.6 1.6 4.8 -11.8281
515 3 3.2 0 3.2 -11.2426
516 1 4.8 1.6 4.8 -11.8557
517 3 6.4 0 3.2 -11.3049
518 4 8 1.6 4.8 -13.336
519 3 9.6 0 3.2 -11.2265
520 1 11.2 1.6 4.8 -11.7917
521 2 12.8 0 3.2 -9.76912
522 1 14.4 1.6 4.8 -11.7984
523 3 16 0 3.2 -11.2019
524 1 17.6 1.6 4.8 -11.7826
525 2 19.2 0 3.2 -9.74805
526 1 20.8 1.6 4.8 -11.8257
527 3 22.4 0 3.2 -11.24
528 1 24 1.6 4.8 -11.8257
529 3 25.6 0 3.2 -11.2384
530 1 27.2 1.6 4.8 -11.7982
531 3 28.8 0 3.2 -11.2378
532 1 30.4 1.6 4.8 -11.8121
533 3 32 0 3.2 -11.2039
534 1 33.6 1.6 4.8 -11.8415
535 2 35.2 0 3.2 -9.77321
536 4 36.8 1.6 4.8 -13.3571
537 3 38.4 0 3.2 -11.2734
538 1 40 1.6 4.8 -11.8279
539 3 41.6 0 3.2 -11.2042
540 1 43.2 1.6 4.8 -11.8122
541 3 44.8 0 3.2 -11.2039
542 1 46.4 1.6 4.8 -11.8259
543 3 48 0 3.2 -11.3383
544 4 49.6 1.6 4.8 -13.381
545 2 0 3.2 3.2 -9.7731
546 1 1.6 4.8 4.8 -11.7979
547 3 3.2 3.2 3.2 -11.2042
548 1 4.8 4.8 4.8 -11.8278
549 3 6.4 3.2 3.2 -11.2005
550 1 8 4.8 4.8 -11.7656
551 2 9.6 3.2 3.2 -9.74962
552 1 11.2 4.8 4.8 -11.7548
553 3 12.8 3.2 3.2 -11.235
554 4 14.4 4.8 4.8 -13.2464
555 3 16 3.2 3.2 -11.2405
556 1 17.6 4.8 4.8 -11.7734
557 3 19.2 3.2 3.2 -11.2039
558 1 20.8 4.8 4.8 -11.7982
559 3 22.4 3.2 3.2 -11.24
560 1 24 4.8 4.8 -11.7544
561 2 25.6 3.2 3.2 -9.74221
562 1 27.2 4.8 4.8 -11.7679
563 3 28.8 3.2 3.2 -11.2042
564 1 30.4 4.8 4.8 -11.7662
565 3 32 3.2 3.2 -11.24
566 4 33.6 4.8 4.8 -13.2971
567 3 35.2 3.2 3.2 -11.3344
568 4 36.8 4.8 4.8 -13.4033
569 3 38.4 3.2 3.2 -11.3042
570 1 40 4.8 4.8 -11.8435
571 3 41.6 3.2 3.2 -11.2023
572 1 43.2 4.8 4.8 -11.8418
573 2 44.8 3.2 3.2 -9.74221
574 1 46.4 4.8 4.8 -11.8117
575 3 48 3.2 3.2 -11.2353
576 1 49.6 4.8 4.8 -11.8554
577 3 0 6.4 3.2 -11.2358
578 4 1.6 8 4.8 -13.3783
579 3 3.2 6.4 3.2 -11.2732
580 4 4.8 8 4.8 -13.3773
581 3 6.4 6.4 3.2 -11.2668
582 2 8 8 4.8 -9.801
583 4 9.6 6.4 3.2 -13.2352
584 4 11.2 8 4.8 -13.2496
585 3 12.8 6.4 3.2 -11.2323
586 1 14.4 8 4.8 -11.7297
587 3 16 6.4 3.2 -11.2376
588 4 17.6 8 4.8 -13.276
589 3 19.2 6.4 3.2 -11.2405
590 1 20.8 8 4.8 -11.7344
591 3 22.4 6.4 3.2 -11.2016
592 1 24 8 4.8 -11.7285
593 2 25.6 6.4 3.2 -9.72183
594 4 27.2 8 4.8 -13.3023
595 3 28.8 6.4 3.2 -11.2028
596 1 30.4 8 4.8 -11.7386
597 2 32 6.4 3.2 -9.71417
598 1 33.6 8 4.8 -11.7149
599 3 35.2 6.4 3.2 -11.2722
600 1 36.8 8 4.8 -11.8105
601 3 38.4 6.4 3.2 -11.2759
602 1 40 8 4.8 -11.8307
603 3 41.6 6.4 3.2 -11.2741
604 4 43.2 8 4.8 -13.2767
605 3 44.8 6.4 3.2 -11.236
606 1 46.4 8 4.8 -11.7774
607 3 48 6.4 3.2 -11.2764
608 4 49.6 8 4.8 -13.3298
609 2 0 9.6 3.2 -9.8368
610 4 1.6 11.2 4.8 -13.3489
611 3 3.2 9.6 3.2 -11.2309
612 1 4.8 11.2 4.8 -11.7088
613 2 6.4 9.6 3.2 -9.83511
614 1 8 11.2 4.8 -11.7066
615 3 9.6 9.6 3.2 -11.142
616 4 11.2 11.2 4.8 -13.1999
617 2 12.8 9.6 3.2 -9.82169
618 4 14.4 11.2 4.8 -13.2914
619 3 16 9.6 3.2 -11.2214
620 4 17.6 11.2 4.8 -13.2401
621 3 19.2 9.6 3.2 -11.275
622 1 20.8 11.2 4.8 -11.7755
623 3 22.4 9.6 3.2 -11.1673
624 1 24 11.2 4.8 -11.7468
625 3 25.6 9.6 3.2 -11.1993
626 4 27.2 11.2 4.8 -13.3005
627 3 28.8 9.6 3.2 -11.3064
628 1 30.4 11.2 4.8 -11.768
629 3 32 9.6 3.2 -11.1624
630 1 33.6 11.2 4.8 -11.7186
631 3 35.2 9.6 3.2 -11.1241
632 4 36.8 11.2 4.8 -13.3088
633 3 38.4 9.6 3.2 -11.2369
634 4 40 11.2 4.8 -13.3499
635 2 41.6 9.6 3.2 -9.81047
636 4 43.2 11.2 4.8 -13.3706
637 2 44.8 9.6 3.2 -9.82002
638 2 46.4 11.2 4.8 -9.81197
639 2 48 9.6 3.2 -9.76519
640 2 49.6 11.2 4.8 -9.82587
641 3 0 12.8 3.2 -11.2355
642 4 1.6 14.4 4.8 -13.2496
643 2 3.2 12.8 3.2 -9.79205
644 4 4.8 14.4 4.8 -13.2575
645 2 6.4 12.8 3.2 -9.76591
646 2 8 14.4 4.8 -9.76323
647 2 9.6 12.8 3.2 -9.73152
648 4 11.2 14.4 4.8 -13.3119
649 2 12.8 12.8 3.2 -9.81598
650 2 14.4 14.4 4.8 -9.86932
651 4 16 12.8 3.2 -13.3147
652 4 17.6 14.4 4.8 -13.2958
653 3 19.2 12.8 3.2 -11.1591
654 1 20.8 14.4 4.8 -11.6819
655 3 22.4 12.8 3.2 -11.0386
656 1 24 14.4 4.8 -11.7234
657 2 25.6 12.8 3.2 -9.78394
658 1 27.2 14.4 4.8 -11.7051
659 3 28.8 12.8 3.2 -11.194
660 1 30.4 14.4 4.8 -11.6554
661 3 32 12.8 3.2 -11.1607
662 1 33.6 14.4 4.8 -11.6213
663 2 35.2 12.8 3.2 -9.72644
664 2 36.8 14.4 4.8 -9.79252
665 2 38.4 12.8 3.2 -9.81872
666 2 40 14.4 4.8 -9.8017
667 3 41.6 12.8 3.2 -11.3121
668 2 43.2 14.4 4.8 -9.86161
669 2 44.8 12.8 3.2 -9.86047
670 3 46.4 14.4 4.8 -11.245
671 4 48 12.8 3.2 -13.3516
672 2 49.6 14.4 4.8 -9.81231
673 1 0 16 3.2 -11.7291
674 2 1.6 17.6 4.8 -9.69465
675 1 3.2 16 3.2 -11.7083
676 2 4.8 17.6 4.8 -9.76511
677 4 6.4 16 3.2 -13.2297
678 4 8 17.6 4.8 -13.2557
679 4 9.6 16 3.2 -13.2068
680 4 11.2 17.6 4.8 -13.3256
681 2 12.8 16 3.2 -9.83828
682 4 14.4 17.6 4.8 -13.3425
683 2 16 16 3.2 -9.88949
684 1 17.6 17.6 4.8 -11.7231
685 2 19.2 16 3.2 -9.73776
686 4 20.8 17.6 4.8 -13.2635
687 4 22.4 16 3.2 -13.2238
688 2 24 17.6 4.8 -9.80374
689 3 25.6 16 3.2 -11.1296
690 4 27.2 17.6 4.8 -13.259
691 4 28.8 16 3.2 -13.2194
692 2 30.4 17.6 4.8 -9.79584
693 2 32 16 3.2 -9.69572
694 2 33.6 17.6 4.8 -9.75861
695 4 35.2 16 3.2 -13.2061
696 3 36.8 17.6 4.8 -11.1496
697 1 38.4 16 3.2 -11.6624
698 2 40 17.6 4.8 -9.75346
699 1 41.6 16 3.2 -11.7371
700 3 43.2 17.6 4.8 -11.2296
701 4 44.8 16 3.2 -13.2982
702 2 46.4 17.6 4.8 -9.848
703 4 48 16 3.2 -13.2677
704 3 49.6 17.6 4.8 -11.2319
705 1 0 19.2 3.2 -11.8253
706 3 1.6 20.8 4.8 -11.2698
707 1 3.2 19.2 3.2 -11.8013
708 2 4.8 20.8 4.8 -9.81532
709 4 6.4 19.2 3.2 -13.3019
710 2 8 20.8 4.8 -9.8147
711 2 9.6 19.2 3.2 -9.78377
712 3 11.2 20.8 4.8 -11.2544
713 4 12.8 19.2 3.2 -13.3236
714 3 14.4 20.8 4.8 -11.2411
715 2 16 19.2 3.2 -9.7815
716 4 17.6 20.8 4.8 -13.353
717 2 19.2 19.2 3.2 -9.83322
718 2 20.8 20.8 4.8 -9.82808
719 1 22.4 19.2 3.2 -11.7242
720 4 24 20.8 4.8 -13.2519
721 4 25.6 19.2 3.2 -13.3268
722 2 27.2 20.8 4.8 -9.82198
723 4 28.8 19.2 3.2 -13.2476
724 3 30.4 20.8 4.8 -11.3018
725 4 32 19.2 3.2 -13.3796
726 3 33.6 20.8 4.8 -11.2322
727 4 35.2 19.2 3.2 -13.3242
728 2 36.8 20.8 4.8 -9.77975
729 1 38.4 19.2 3.2 -11.7472
730 2 40 20.8 4.8 -9.74699
731 1 41.6 19.2 3.2 -11.7847
732 3 43.2 20.8 4.8 -11.1602
733 1 44.8 19.2 3.2 -11.7582
734 3 46.4 20.8 4.8 -11.2662
735 4 48 19.2 3.2 -13.3416
736 3 49.6 20.8 4.8 -11.3388
737 1 0 22.4 3.2 -11.828
738 3 1.6 24 4.8 -11.2687
739 4 3.2 22.4 3.2 -13.3292
740 3 4.8 24 4.8 -11.2692
741 1 6.4 22.4 3.2 -11.7863
742 3 8 24 4.8 -11.2738
743 1 9.6 22.4 3.2 -11.846
744 3 11.2 24 4.8 -11.2672
745 1 12.8 22.4 3.2 -11.789
746 4 14.4 24 4.8 -13.2913
747 4 16 22.4 3.2 -13.2761
748 2 17.6 24 4.8 -9.7562
749 4 19.2 22.4 3.2 -13.3244
750 2 20.8 24 4.8 -9.86509
751 1 22.4 22.4 3.2 -11.7339
752 2 24 24 4.8 -9.76282
753 4 25.6 22.4 3.2 -13.291
754 2 27.2 24 4.8 -9.87048
755 4 28.8 22.4 3.2 -13.3805
756 3 30.4 24 4.8 -11.2654
757 1 32 22.4 3.2 -11.8552
758 2 33.6 24 4.8 -9.74914
759 4 35.2 22.4 3.2 -13.3027
760 2 36.8 24 4.8 -9.71415
761 1 38.4 22.4 3.2 -11.768
762 3 40 24 4.8 -11.1651
763 1 41.6 22.4 3.2 -11.7527
764 3 43.2 24 4.8 -11.1633
765 1 44.8 22.4 3.2 -11.7848
766 3 46.4 24 4.8 -11.2734
767 4 48 22.4 3.2 -13.3828
768 3 49.6 24 4.8 -11.2761
769 1 0 25.6 3.2 -11.7975
771 4 3.2 25.6 3.2 -13.3086
773 1 6.4 25.6 3.2 -11.8422
775 4 9.6 25.6 3.2 -13.3394
777 1 12.8 25.6 3.2 -11.7818
779 1 16 25.6 3.2 -11.7086
781 4 19.2 25.6 3.2 -13.2908
783 1 22.4 25.6 3.2 -11.7837
785 4 25.6 25.6 3.2 -13.2978
787 1 28.8 25.6 3.2 -11.8472
789 1 32 25.6 3.2 -11.8279
791 1 35.2 25.6 3.2 -11.7986
793 1 38.4 25.6 3.2 -11.7982
795 1 41.6 25.6 3.2 -11.7749
797 1 44.8 25.6 3.2 -11.7996
799 1 48 25.6 3.2 -11.87
770 3 1.6 27.2 4.8 -11.2761
801 1 0 28.8 3.2 -11.8257
772 3 4.8 27.2 4.8 -11.2761
803 1 3.2 28.8 3.2 -11.7942
774 3 8 27.2 4.8 -11.2761
805 1 6.4 28.8 3.2 -11.8281
776 3 11.2 27.2 4.8 -11.2702
807 1 9.6 28.8 3.2 -11.8279
778 3 14.4 27.2 4.8 -11.1896
809 1 12.8 28.8 3.2 -11.8392
780 4 17.6 27.2 4.8 -13.2454
811 1 16 28.8 3.2 -11.7338
782 3 20.8 27.2 4.8 -11.2214
813 1 19.2 28.8 3.2 -11.7293
784 3 24 27.2 4.8 -11.2662
815 4 22.4 28.8 3.2 -13.3049
817 1 25.6 28.8 3.2 -11.8135
786 3 27.2 27.2 4.8 -11.234
819 1 28.8 28.8 3.2 -11.8257
788 3 30.4 27.2 4.8 -11.3086
821 1 32 28.8 3.2 -11.7977
790 3 33.6 27.2 4.8 -11.1626
823 1 35.2 28.8 3.2 -11.793
792 3 36.8 27.2 4.8 -11.1947
825 4 38.4 28.8 3.2 -13.3633
794 3 40 27.2 4.8 -11.2303
827 4 41.6 28.8 3.2 -13.3555
796 2 43.2 27.2 4.8 -9.80878
829 1 44.8 28.8 3.2 -11.7996
798 3 46.4 27.2 4.8 -11.2354
831 4 48 28.8 3.2 -13.3586
800 3 49.6 27.2 4.8 -11.2756
802 3 1.6 30.4 4.8 -11.2005
833 1 0 32 3.2 -11.8155
804 3 4.8 30.4 4.8 -11.1658
835 1 3.2 32 3.2 -11.7528
806 3 8 30.4 4.8 -11.2042
837 1 6.4 32 3.2 -11.7842
808 3 11.2 30.4 4.8 -11.3099
839 1 9.6 32 3.2 -11.8312
810 3 14.4 30.4 4.8 -11.3046
841 4 12.8 32 3.2 -13.3338
812 3 17.6 30.4 4.8 -11.2259
843 1 16 32 3.2 -11.8434
814 2 20.8 30.4 4.8 -9.83978
845 4 19.2 32 3.2 -13.2948
816 3 24 30.4 4.8 -11.2354
847 1 22.4 32 3.2 -11.7727
849 1 25.6 32 3.2 -11.8018
818 3 27.2 30.4 4.8 -11.1602
851 4 28.8 32 3.2 -13.3264
820 3 30.4 30.4 4.8 -11.2694
853 4 32 32 3.2 -13.3452
822 4 33.6 30.4 4.8 -13.1964
855 1 35.2 32 3.2 -11.7445
824 3 36.8 30.4 4.8 -11.1869
857 4 38.4 32 3.2 -13.3503
826 4 40 30.4 4.8 -13.3436
859 2 41.6 32 3.2 -9.83475
828 2 43.2 30.4 4.8 -9.78844
861 4 44.8 32 3.2 -13.303
830 2 46.4 30.4 4.8 -9.77529
863 1 48 32 3.2 -11.8167
832 3 49.6 30.4 4.8 -11.2729
834 2 1.6 33.6 4.8 -9.7999
865 1 0 35.2 3.2 -11.8414
836 3 4.8 33.6 4.8 -11.2045
867 1 3.2 35.2 3.2 -11.8117
838 3 8 33.6 4.8 -11.2397
869 1 6.4 35.2 3.2 -11.7997
840 3 11.2 33.6 4.8 -11.2727
871 4 9.6 35.2 3.2 -13.3017
842 2 14.4 33.6 4.8 -9.86648
873 1 12.8 35.2 3.2 -11.7581
844 3 17.6 33.6 4.8 -11.3229
875 4 16 35.2 3.2 -13.3325
846 2 20.8 33.6 4.8 -9.84119
877 4 19.2 35.2 3.2 -13.4084
848 2 24 33.6 4.8 -9.75743
879 4 22.4 35.2 3.2 -13.2962
881 4 25.6 35.2 3.2 -13.229
850 2 27.2 33.6 4.8 -9.78586
883 1 28.8 35.2 3.2 -11.7479
852 3 30.4 33.6 4.8 -11.3279
885 4 32 35.2 3.2 -13.3279
854 2 33.6 33.6 4.8 -9.76856
887 4 35.2 35.2 3.2 -13.2633
856 4 36.8 33.6 4.8 -13.2512
889 2 38.4 35.2 3.2 -9.81596
858 2 40 33.6 4.8 -9.8181
891 4 41.6 35.2 3.2 -13.3139
860 2 43.2 33.6 4.8 -9.82198
893 4 44.8 35.2 3.2 -13.2513
862 3 46.4 33.6 4.8 -11.1961
895 1 48 35.2 3.2 -11.818
864 3 49.6 33.6 4.8 -11.2374
866 3 1.6 36.8 4.8 -11.301
897 1 0 38.4 3.2 -11.8362
868 3 4.8 36.8 4.8 -11.27
899 2 3.2 38.4 3.2 -9.75753
870 3 8 36.8 4.8 -11.3054
901 1 6.4 38.4 3.2 -11.7296
872 3 11.2 36.8 4.8 -11.2599
903 4 9.6 38.4 3.2 -13.2947
874 2 14.4 36.8 4.8 -9.78639
905 1 12.8 38.4 3.2 -11.6799
876 4 17.6 36.8 4.8 -13.3864
907 4 16 38.4 3.2 -13.2645
878 2 20.8 36.8 4.8 -9.83589
909 3 19.2 38.4 3.2 -11.2624
880 4 24 36.8 4.8 -13.3177
911 2 22.4 38.4 3.2 -9.86625
913 2 25.6 38.4 3.2 -9.84696
882 2 27.2 36.8 4.8 -9.80672
915 2 28.8 38.4 3.2 -9.81823
884 3 30.4 36.8 4.8 -11.2611
917 3 32 38.4 3.2 -11.2689
886 1 33.6 36.8 4.8 -11.7323
919 3 35.2 38.4 3.2 -11.23
888 4 36.8 36.8 4.8 -13.229
921 2 38.4 38.4 3.2 -9.78446
890 4 40 36.8 4.8 -13.2571
923 3 41.6 38.4 3.2 -11.1822
892 2 43.2 36.8 4.8 -9.86145
925 2 44.8 38.4 3.2 -9.84003
894 2 46.4 36.8 4.8 -9.86709
927 2 48 38.4 3.2 -9.78433
896 3 49.6 36.8 4.8 -11.3035
898 2 1.6 40 4.8 -9.84635
929 2 0 41.6 3.2 -9.77387
900 2 4.8 40 4.8 -9.79244
931 4 3.2 41.6 3.2 -13.3374
902 2 8 40 4.8 -9.79273
933 4 6.4 41.6 3.2 -13.2799
904 4 11.2 40 4.8 -13.2834
935 2 9.6 41.6 3.2 -9.83586
906 4 14.4 40 4.8 -13.223
937 2 12.8 41.6 3.2 -9.87003
908 1 17.6 40 4.8 -11.6997
939 2 16 41.6 3.2 -9.81608
910 4 20.8 40 4.8 -13.3289
941 3 19.2 41.6 3.2 -11.2648
912 1 24 40 4.8 -11.8176
943 3 22.4 41.6 3.2 -11.2685
945 3 25.6 41.6 3.2 -11.2712
914 1 27.2 40 4.8 -11.8187
947 3 28.8 41.6 3.2 -11.2741
916 1 30.4 40 4.8 -11.803
949 3 32 41.6 3.2 -11.2761
918 1 33.6 40 4.8 -11.78
951 3 35.2 41.6 3.2 -11.24
920 1 36.8 40 4.8 -11.7216
953 2 38.4 41.6 3.2 -9.72232
922 1 40 40 4.8 -11.6613
955 2 41.6 41.6 3.2 -9.66304
924 4 43.2 40 4.8 -13.2254
957 2 44.8 41.6 3.2 -9.69881
926 4 46.4 40 4.8 -13.2869
959 4 48 41.6 3.2 -13.3117
928 2 49.6 40 4.8 -9.84422
930 2 1.6 43.2 4.8 -9.84085
961 4 0 44.8 3.2 -13.2808
932 2 4.8 43.2 4.8 -9.87732
963 2 3.2 44.8 3.2 -9.86139
934 4 8 43.2 4.8 -13.3422
965 3 6.4 44.8 3.2 -11.2677
936 2 11.2 43.2 4.8 -9.79078
967 2 9.6 44.8 3.2 -9.78656
938 4 14.4 43.2 4.8 -13.3509
969 2 12.8 44.8 3.2 -9.78442
940 1 17.6 43.2 4.8 -11.7863
971 3 16 44.8 3.2 -11.23
942 1 20.8 43.2 4.8 -11.8128
973 2 19.2 44.8 3.2 -9.71786
944 1 24 43.2 4.8 -11.7938
975 3 22.4 44.8 3.2 -11.1619
977 3 25.6 44.8 3.2 -11.2729
946 1 27.2 43.2 4.8 -11.8119
979 3 28.8 44.8 3.2 -11.2748
948 1 30.4 43.2 4.8 -11.826
981 3 32 44.8 3.2 -11.2378
950 1 33.6 43.2 4.8 -11.812
983 3 35.2 44.8 3.2 -11.2045
952 1 36.8 43.2 4.8 -11.7977
985 2 38.4 44.8 3.2 -9.77719
954 4 40 43.2 4.8 -13.2345
987 3 41.6 44.8 3.2 -11.2646
956 1 43.2 43.2 4.8 -11.7382
989 3 44.8 44.8 3.2 -11.3022
958 4 46.4 43.2 4.8 -13.2726
991 3 48 44.8 3.2 -11.2144
960 4 49.6 43.2 4.8 -13.3077
962 1 1.6 46.4 4.8 -11.7197
993 3 0 48 3.2 -11.2325
964 4 4.8 46.4 4.8 -13.3166
995 3 3.2 48 3.2 -11.1959
966 4 8 46.4 4.8 -13.2234
997 2 6.4 48 3.2 -9.84246
968 1 11.2 46.4 4.8 -11.722
999 2 9.6 48 3.2 -9.78199
970 1 14.4 46.4 4.8 -11.7978
1001 3 12.8 48 3.2 -11.163
972 1 17.6 46.4 4.8 -11.7792
1003 3 16 48 3.2 -11.2382
974 1 20.8 46.4 4.8 -11.7179
1005 4 19.2 48 3.2 -13.1116
976 1 24 46.4 4.8 -11.7508
1007 3 22.4 48 3.2 -11.2034
1009 3 25.6 48 3.2 -11.235
978 1 27.2 46.4 4.8 -11.7939
1011 3 28.8 48 3.2 -11.3078
980 1 30.4 46.4 4.8 -11.8279
1013 3 32 48 3.2 -11.2423
982 1 33.6 46.4 4.8 -11.8021
1015 3 35.2 48 3.2 -11.1645
984 1 36.8 46.4 4.8 -11.7568
1017 3 38.4 48 3.2 -11.2386
986 2 40 46.4 4.8 -9.77487
1019 3 41.6 48 3.2 -11.3049
988 4 43.2 46.4 4.8 -13.3271
1021 3 44.8 48 3.2 -11.3091
990 1 46.4 46.4 4.8 -11.8121
1023 3 48 48 3.2 -11.34
992 1 49.6 46.4 4.8 -11.7316
994 1 1.6 49.6 4.8 -11.7961
996 1 4.8 49.6 4.8 -11.787
998 4 8 49.6 4.8 -13.3194
1000 4 11.2 49.6 4.8 -13.3069
1002 1 14.4 49.6 4.8 -11.8281
1004 1 17.6 49.6 4.8 -11.766
1006 1 20.8 49.6 4.8 -11.7794
1008 1 24 49.6 4.8 -11.8119
1010 1 27.2 49.6 4.8 -11.8155
1012 1 30.4 49.6 4.8 -11.8279
1014 1 33.6 49.6 4.8 -11.7997
1016 1 36.8 49.6 4.8 -11.7674
1018 1 40 49.6 4.8 -11.8315
1020 1 43.2 49.6 4.8 -11.8437
1022 1 46.4 49.6 4.8 -11.8553
1024 4 49.6 49.6 4.8 -13.3575
1025 3 0 0 6.4 -11.2719
1026 1 1.6 1.6 8 -11.8414
1027 3 3.2 0 6.4 -11.2042
1028 1 4.8 1.6 8 -11.8416
1029 3 6.4 0 6.4 -11.2364
1030 1 8 1.6 8 -11.7961
1031 2 9.6 0 6.4 -9.80991
1032 1 11.2 1.6 8 -11.7729
1033 3 12.8 0 6.4 -11.1988
1034 1 14.4 1.6 8 -11.7387
1035 3 16 0 6.4 -11.2048
1036 1 17.6 1.6 8 -11.7554
1037 3 19.2 0 6.4 -11.2358
1038 4 20.8 1.6 8 -13.383
1039 3 22.4 0 6.4 -11.3393
1040 4 24 1.6 8 -13.3554
1041 3 25.6 0 6.4 -11.2324
1042 4 27.2 1.6 8 -13.2702
1043 2 28.8 0 6.4 -9.78109
1044 1 30.4 1.6 8 -11.802
1045 3 32 0 6.4 -11.2722
1046 1 33.6 1.6 8 -11.855
1047 3 35.2 0 6.4 -11.2359
1048 1 36.8 1.6 8 -11.83
1049 3 38.4 0 6.4 -11.1988
1050 1 40 1.6 8 -11.7846
1051 3 41.6 0 6.4 -11.2382
1052 1 43.2 1.6 8 -11.8155
1053 3 44.8 0 6.4 -11.2402
1054 1 46.4 1.6 8 -11.7979
1055 3 48 0 6.4 -11.27
1056 1 49.6 1.6 8 -11.8554
1057 3 0 3.2 6.4 -11.2731
1058 1 1.6 4.8 8 -11.8415
1059 3 3.2 3.2 6.4 -11.2036
1060 1 4.8 4.8 8 -11.8279
1061 3 6.4 3.2 6.4 -11.2764
1062 1 8 4.8 8 -11.8433
1063 3 9.6 3.2 6.4 -11.1986
1064 4 11.2 4.8 8 -13.3279
1065 3 12.8 3.2 6.4 -11.2004
1066 1 14.4 4.8 8 -11.7591
1067 2 16 3.2 6.4 -9.72087
1068 4 17.6 4.8 8 -13.2881
1069 3 19.2 3.2 6.4 -11.2336
1070 4 20.8 4.8 8 -13.2619
1071 3 22.4 3.2 6.4 -11.2683
1072 4 24 4.8 8 -13.2656
1073 3 25.6 3.2 6.4 -11.2312
1074 1 27.2 4.8 8 -11.8083
1075 3 28.8 3.2 6.4 -11.2413
1076 1 30.4 4.8 8 -11.7413
1077 3 32 3.2 6.4 -11.2026
1078 1 33.6 4.8 8 -11.7708
1079 3 35.2 3.2 6.4 -11.3367
1080 4 36.8 4.8 8 -13.3946
1081 2 38.4 3.2 6.4 -9.86015
1082 4 40 4.8 8 -13.3779
1083 3 41.6 3.2 6.4 -11.24
1084 1 43.2 4.8 8 -11.8132
1085 3 44.8 3.2 6.4 -11.2039
1086 1 46.4 4.8 8 -11.8414
1087 3 48 3.2 6.4 -11.3094
1088 4 49.6 4.8 8 -13.3822
1089 3 0 6.4 6.4 -11.331
1090 4 1.6 8 8 -13.3607
1091 2 3.2 6.4 6.4 -9.85698
1092 4 4.8 8 8 -13.3574
1093 3 6.4 6.4 6.4 -11.297
1094 4 8 8 8 -13.3237
1095 2 9.6 6.4 6.4 -9.78906
1096 4 11.2 8 8 -13.2239
1097 2 12.8 6.4 6.4 -9.79154
1098 4 14.4 8 8 -13.2543
1099 4 16 6.4 6.4 -13.1647
1100 2 17.6 8 8 -9.78026
1101 2 19.2 6.4 6.4 -9.76144
1102 1 20.8 8 8 -11.7269
1103 2 22.4 6.4 6.4 -9.72264
1104 4 24 8 8 -13.2566