ITEM: TIMESTEP
0
ITEM: NUMBER OF ATOMS
8192
ITEM: BOX BOUNDS pp pp pp
0.0000000000000000e+00 5.1200000000000003e+01
0.0000000000000000e+00 5.1200000000000003e+01
0.0000000000000000e+00 5.1200000000000003e+01
ITEM: ATOMS id type x y z c_eng
1 2 0 0 0 -9.77721
2 1 1.6 1.6 1.6 -11.7983
3 3 3.2 0 0 -11.2326
4 1 4.8 1.6 1.6 -11.8258
5 3 6.4 0 0 -11.305
6 1 8 1.6 1.6 -11.8593
7 2 9.6 0 0 -9.83736
8 4 11.2 1.6 1.6 -13.3344
9 2 12.8 0 0 -9.72272
10 1 14.4 1.6 1.6 -11.814
11 2 16 0 0 -9.71257
12 1 17.6 1.6 1.6 -11.8122
13 3 19.2 0 0 -11.2036
14 1 20.8 1.6 1.6 -11.8282
15 3 22.4 0 0 -11.2759
16 4 24 1.6 1.6 -13.3344
17 3 25.6 0 0 -11.2376
18 1 27.2 1.6 1.6 -11.8454
19 2 28.8 0 0 -9.71268
20 1 30.4 1.6 1.6 -11.7697
21 3 32 0 0 -11.235
22 4 33.6 1.6 1.6 -13.279
23 3 35.2 0 0 -11.3013
24 1 36.8 1.6 1.6 -11.7733
25 2 38.4 0 0 -9.74383
26 1 40 1.6 1.6 -11.7938
27 3 41.6 0 0 -11.2705
28 4 43.2 1.6 1.6 -13.3776
29 3 44.8 0 0 -11.2667
30 1 46.4 1.6 1.6 -11.7979
31 3 48 0 0 -11.2366
32 1 49.6 1.6 1.6 -11.8021
33 3 0 3.2 0 -11.1635
34 1 1.6 4.8 1.6 -11.7509
35 3 3.2 3.2 0 -11.2045
36 1 4.8 4.8 1.6 -11.7811
37 3 6.4 3.2 0 -11.2759
38 1 8 4.8 1.6 -11.8413
39 3 9.6 3.2 0 -11.3075
40 1 11.2 4.8 1.6 -11.8841
41 3 12.8 3.2 0 -11.308
42 1 14.4 4.8 1.6 -11.8117
43 3 16 3.2 0 -11.2397
44 1 17.6 4.8 1.6 -11.8281
45 3 19.2 3.2 0 -11.242
46 1 20.8 4.8 1.6 -11.7985
47 3 22.4 3.2 0 -11.2729
48 4 24 4.8 1.6 -13.3518
49 3 25.6 3.2 0 -11.3685
50 4 27.2 4.8 1.6 -13.3465
51 3 28.8 3.2 0 -11.1951
52 1 30.4 4.8 1.6 -11.7887
53 2 32 3.2 0 -9.77475
54 4 33.6 4.8 1.6 -13.3554
55 3 35.2 3.2 0 -11.2335
56 4 36.8 4.8 1.6 -13.3098
57 2 38.4 3.2 0 -9.74111
58 1 40 4.8 1.6 -11.777
59 3 41.6 3.2 0 -11.2644
60 4 43.2 4.8 1.6 -13.3275
61 3 44.8 3.2 0 -11.3017
62 1 46.4 4.8 1.6 -11.853
63 2 48 3.2 0 -9.74221
64 1 49.6 4.8 1.6 -11.7827
65 3 0 6.4 0 -11.2013
66 1 1.6 8 1.6 -11.7827
67 3 3.2 6.4 0 -11.2384
68 1 4.8 8 1.6 -11.8255
69 3 6.4 6.4 0 -11.242
70 1 8 8 1.6 -11.8312
71 3 9.6 6.4 0 -11.3039
72 4 11.2 8 1.6 -13.3544
73 3 12.8 6.4 0 -11.3383
74 1 14.4 8 1.6 -11.8545
75 3 16 6.4 0 -11.2376
76 1 17.6 8 1.6 -11.8418
77 3 19.2 6.4 0 -11.2761
78 1 20.8 8 1.6 -11.796
79 3 22.4 6.4 0 -11.2019
80 1 24 8 1.6 -11.7832
81 3 25.6 6.4 0 -11.269
82 1 27.2 8 1.6 -11.7739
83 2 28.8 6.4 0 -9.83913
84 4 30.4 8 1.6 -13.3464
85 3 32 6.4 0 -11.2692
86 1 33.6 8 1.6 -11.8062
87 3 35.2 6.4 0 -11.2318
88 1 36.8 8 1.6 -11.7893
89 3 38.4 6.4 0 -11.1997
90 4 40 8 1.6 -13.2138
91 2 41.6 6.4 0 -9.74888
92 1 43.2 8 1.6 -11.7408
93 3 44.8 6.4 0 -11.2371
94 4 46.4 8 1.6 -13.3076
95 3 48 6.4 0 -11.1643
96 1 49.6 8 1.6 -11.735
97 2 0 9.6 0 -9.75224
98 4 1.6 11.2 1.6 -13.2911
99 3 3.2 9.6 0 -11.3057
100 4 4.8 11.2 1.6 -13.4348
101 3 6.4 9.6 0 -11.3019
102 2 8 11.2 1.6 -9.83419
103 2 9.6 9.6 0 -9.87142
104 4 11.2 11.2 1.6 -13.3481
105 3 12.8 9.6 0 -11.3614
106 4 14.4 11.2 1.6 -13.3551
107 3 16 9.6 0 -11.3055
108 1 17.6 11.2 1.6 -11.8433
109 3 19.2 9.6 0 -11.3084
110 4 20.8 11.2 1.6 -13.3816
111 3 22.4 9.6 0 -11.2734
112 4 24 11.2 1.6 -13.3258
113 3 25.6 9.6 0 -11.274
114 4 27.2 11.2 1.6 -13.3279
115 3 28.8 9.6 0 -11.2658
116 4 30.4 11.2 1.6 -13.3245
117 3 32 9.6 0 -11.2658
118 1 33.6 11.2 1.6 -11.7377
119 2 35.2 9.6 0 -9.71463
120 4 36.8 11.2 1.6 -13.2127
121 3 38.4 9.6 0 -11.1587
122 1 40 11.2 1.6 -11.73
123 2 41.6 9.6 0 -9.72374
124 1 43.2 11.2 1.6 -11.7173
125 2 44.8 9.6 0 -9.73026
126 4 46.4 11.2 1.6 -13.2528
127 4 48 9.6 0 -13.12
128 1 49.6 11.2 1.6 -11.6607
129 2 0 12.8 0 -9.80777
130 4 1.6 14.4 1.6 -13.3491
131 3 3.2 12.8 0 -11.293
132 2 4.8 14.4 1.6 -9.83783
133 2 6.4 12.8 0 -9.81454
134 2 8 14.4 1.6 -9.7913
135 4 9.6 12.8 0 -13.2717
136 2 11.2 14.4 1.6 -9.81911
137 2 12.8 12.8 0 -9.81985
138 2 14.4 14.4 1.6 -9.8358
139 2 16 12.8 0 -9.81467
140 4 17.6 14.4 1.6 -13.3254
141 3 19.2 12.8 0 -11.3008
142 4 20.8 14.4 1.6 -13.3376
143 3 22.4 12.8 0 -11.3312
144 4 24 14.4 1.6 -13.3161
145 2 25.6 12.8 0 -9.84069
146 2 27.2 14.4 1.6 -9.83355
147 2 28.8 12.8 0 -9.84327
148 2 30.4 14.4 1.6 -9.84074
149 3 32 12.8 0 -11.2169
150 2 33.6 14.4 1.6 -9.83871
151 2 35.2 12.8 0 -9.72818
152 4 36.8 14.4 1.6 -13.3179
153 4 38.4 12.8 0 -13.3147
154 4 40 14.4 1.6 -13.333
155 3 41.6 12.8 0 -11.1968
156 2 43.2 14.4 1.6 -9.83549
157 2 44.8 12.8 0 -9.83699
158 2 46.4 14.4 1.6 -9.86751
159 4 48 12.8 0 -13.2648
160 2 49.6 14.4 1.6 -9.8177
161 4 0 16 0 -13.3495
162 3 1.6 17.6 1.6 -11.2635
163 4 3.2 16 0 -13.2896
164 3 4.8 17.6 1.6 -11.2929
165 4 6.4 16 0 -13.2941
166 4 8 17.6 1.6 -13.254
167 4 9.6 16 0 -13.2181
168 4 11.2 17.6 1.6 -13.2418
169 4 12.8 16 0 -13.2458
170 2 14.4 17.6 1.6 -9.82188
171 2 16 16 0 -9.78688
172 2 17.6 17.6 1.6 -9.76262
173 2 19.2 16 0 -9.82372
174 1 20.8 17.6 1.6 -11.6985
175 3 22.4 16 0 -11.3482
176 4 24 17.6 1.6 -13.3499
177 2 25.6 16 0 -9.84503
178 2 27.2 17.6 1.6 -9.84237
179 4 28.8 16 0 -13.2817
180 2 30.4 17.6 1.6 -9.82016
181 4 32 16 0 -13.3525
182 2 33.6 17.6 1.6 -9.84368
183 2 35.2 16 0 -9.87618
184 2 36.8 17.6 1.6 -9.8816
185 3 38.4 16 0 -11.2587
186 4 40 17.6 1.6 -13.3473
187 4 41.6 16 0 -13.3806
188 3 43.2 17.6 1.6 -11.2934
189 4 44.8 16 0 -13.3759
190 3 46.4 17.6 1.6 -11.302
191 4 48 16 0 -13.3187
192 3 49.6 17.6 1.6 -11.3024
193 1 0 19.2 0 -11.7845
194 3 1.6 20.8 1.6 -11.2739
195 4 3.2 19.2 0 -13.3507
196 3 4.8 20.8 1.6 -11.2694
197 4 6.4 19.2 0 -13.3042
198 3 8 20.8 1.6 -11.2009
199 1 9.6 19.2 0 -11.7188
200 3 11.2 20.8 1.6 -11.2308
201 4 12.8 19.2 0 -13.2317
202 3 14.4 20.8 1.6 -11.333
203 4 16 19.2 0 -13.3255
204 3 17.6 20.8 1.6 -11.2675
205 1 19.2 19.2 0 -11.7126
206 2 20.8 20.8 1.6 -9.86781
207 2 22.4 19.2 0 -9.86078
208 3 24 20.8 1.6 -11.369
209 4 25.6 19.2 0 -13.3403
210 2 27.2 20.8 1.6 -9.81781
211 4 28.8 19.2 0 -13.2352
212 3 30.4 20.8 1.6 -11.1966
213 1 32 19.2 0 -11.8182
214 3 33.6 20.8 1.6 -11.238
215 1 35.2 19.2 0 -11.806
216 3 36.8 20.8 1.6 -11.2984
217 2 38.4 19.2 0 -9.82543
218 2 40 20.8 1.6 -9.79056
219 4 41.6 19.2 0 -13.3275
220 2 43.2 20.8 1.6 -9.80635
221 1 44.8 19.2 0 -11.8126
222 3 46.4 20.8 1.6 -11.2381
223 1 48 19.2 0 -11.812
224 3 49.6 20.8 1.6 -11.2381
225 1 0 22.4 0 -11.8122
226 3 1.6 24 1.6 -11.2394
227 4 3.2 22.4 0 -13.3062
228 3 4.8 24 1.6 -11.3089
229 1 6.4 22.4 0 -11.8136
230 3 8 24 1.6 -11.2758
231 1 9.6 22.4 0 -11.7804
232 3 11.2 24 1.6 -11.2764
233 1 12.8 22.4 0 -11.8266
234 3 14.4 24 1.6 -11.3089
235 4 16 22.4 0 -13.3555
236 3 17.6 24 1.6 -11.3073
237 4 19.2 22.4 0 -13.3494
238 3 20.8 24 1.6 -11.2702
239 4 22.4 22.4 0 -13.373
240 2 24 24 1.6 -9.8061
241 4 25.6 22.4 0 -13.2554
242 2 27.2 24 1.6 -9.68987
243 1 28.8 22.4 0 -11.7565
244 3 30.4 24 1.6 -11.1667
245 1 32 22.4 0 -11.8119
246 2 33.6 24 1.6 -9.77496
247 1 35.2 22.4 0 -11.8283
248 3 36.8 24 1.6 -11.2727
249 4 38.4 22.4 0 -13.3344
250 2 40 24 1.6 -9.74777
251 4 41.6 22.4 0 -13.3054
252 3 43.2 24 1.6 -11.2023
253 1 44.8 22.4 0 -11.842
254 3 46.4 24 1.6 -11.307
255 4 48 22.4 0 -13.385
256 3 49.6 24 1.6 -11.3073
257 1 0 25.6 0 -11.8258
259 1 3.2 25.6 0 -11.7998
261 1 6.4 25.6 0 -11.8422
263 1 9.6 25.6 0 -11.8414
265 1 12.8 25.6 0 -11.8556
267 1 16 25.6 0 -11.8555
269 1 19.2 25.6 0 -11.8555
271 1 22.4 25.6 0 -11.7983
273 1 25.6 25.6 0 -11.7291
275 1 28.8 25.6 0 -11.7506
277 1 32 25.6 0 -11.7988
279 4 35.2 25.6 0 -13.2857
281 1 38.4 25.6 0 -11.749
283 1 41.6 25.6 0 -11.7546
285 1 44.8 25.6 0 -11.8256
287 4 48 25.6 0 -13.4044
258 3 1.6 27.2 1.6 -11.242
289 1 0 28.8 0 -11.828
260 3 4.8 27.2 1.6 -11.2378
291 1 3.2 28.8 0 -11.826
262 3 8 27.2 1.6 -11.2384
293 1 6.4 28.8 0 -11.798
264 3 11.2 27.2 1.6 -11.2378
295 1 9.6 28.8 0 -11.8258
266 3 14.4 27.2 1.6 -11.3089
297 4 12.8 28.8 0 -13.365
268 3 17.6 27.2 1.6 -11.2756
299 1 16 28.8 0 -11.8697
270 3 20.8 27.2 1.6 -11.2417
301 1 19.2 28.8 0 -11.8555
272 3 24 27.2 1.6 -11.2384
303 1 22.4 28.8 0 -11.8556
305 1 25.6 28.8 0 -11.8256
274 3 27.2 27.2 1.6 -11.2313
307 1 28.8 28.8 0 -11.8257
276 3 30.4 27.2 1.6 -11.2387
309 1 32 28.8 0 -11.7998
278 2 33.6 27.2 1.6 -9.74221
311 1 35.2 28.8 0 -11.7407
280 3 36.8 27.2 1.6 -11.1631
313 1 38.4 28.8 0 -11.7635
282 2 40 27.2 1.6 -9.71269
315 4 41.6 28.8 0 -13.2793
284 3 43.2 27.2 1.6 -11.2366
317 1 44.8 28.8 0 -11.8002
286 3 46.4 27.2 1.6 -11.3052
319 4 48 28.8 0 -13.2992
288 3 49.6 27.2 1.6 -11.3073
290 3 1.6 30.4 1.6 -11.2756
321 1 0 32 0 -11.8414
292 3 4.8 30.4 1.6 -11.2736
323 4 3.2 32 0 -13.3645
294 2 8 30.4 1.6 -9.77453
325 1 6.4 32 0 -11.8126
296 3 11.2 30.4 1.6 -11.2732
327 1 9.6 32 0 -11.8022
298 3 14.4 30.4 1.6 -11.3091
329 1 12.8 32 0 -11.8119
300 3 17.6 30.4 1.6 -11.3047
331 1 16 32 0 -11.8255
302 3 20.8 30.4 1.6 -11.3383
333 4 19.2 32 0 -13.424
304 3 24 30.4 1.6 -11.305
335 4 22.4 32 0 -13.3782
337 1 25.6 32 0 -11.83
306 3 27.2 30.4 1.6 -11.368
339 1 28.8 32 0 -11.8321
308 3 30.4 30.4 1.6 -11.2359
341 1 32 32 0 -11.7691
310 3 33.6 30.4 1.6 -11.1654
343 1 35.2 32 0 -11.7163
312 3 36.8 30.4 1.6 -11.2002
345 4 38.4 32 0 -13.2385
314 3 40 30.4 1.6 -11.1971
347 1 41.6 32 0 -11.733
316 3 43.2 30.4 1.6 -11.1971
349 1 44.8 32 0 -11.7385
318 2 46.4 30.4 1.6 -9.77528
351 1 48 32 0 -11.7874
320 3 49.6 30.4 1.6 -11.2018
322 3 1.6 33.6 1.6 -11.3084
353 1 0 35.2 0 -11.8421
324 3 4.8 33.6 1.6 -11.2736
355 1 3.2 35.2 0 -11.8554
326 3 8 33.6 1.6 -11.232
357 1 6.4 35.2 0 -11.7703
328 3 11.2 33.6 1.6 -11.3027
359 4 9.6 35.2 0 -13.241
330 3 14.4 33.6 1.6 -11.2698
361 4 12.8 35.2 0 -13.2876
332 3 17.6 33.6 1.6 -11.3315
363 1 16 35.2 0 -11.7498
334 3 20.8 33.6 1.6 -11.4182
365 4 19.2 35.2 0 -13.3683
336 2 24 33.6 1.6 -9.81653
367 4 22.4 35.2 0 -13.3634
369 1 25.6 35.2 0 -11.7092
338 3 27.2 33.6 1.6 -11.2229
371 4 28.8 35.2 0 -13.2626
340 2 30.4 33.6 1.6 -9.86351
373 4 32 35.2 0 -13.3999
342 3 33.6 33.6 1.6 -11.1902
375 2 35.2 35.2 0 -9.78763
344 4 36.8 33.6 1.6 -13.2319
377 2 38.4 35.2 0 -9.84469
346 4 40 33.6 1.6 -13.2436
379 2 41.6 35.2 0 -9.81894
348 2 43.2 33.6 1.6 -9.7533
381 4 44.8 35.2 0 -13.3856
350 3 46.4 33.6 1.6 -11.2018
383 1 48 35.2 0 -11.7866
352 3 49.6 33.6 1.6 -11.2397
354 3 1.6 36.8 1.6 -11.2733
385 1 0 38.4 0 -11.738
356 3 4.8 36.8 1.6 -11.2381
387 1 3.2 38.4 0 -11.8574
358 2 8 36.8 1.6 -9.74232
389 1 6.4 38.4 0 -11.8086
360 3 11.2 36.8 1.6 -11.2594
391 1 9.6 38.4 0 -11.7496
362 2 14.4 36.8 1.6 -9.87045
393 4 12.8 38.4 0 -13.3178
364 4 17.6 36.8 1.6 -13.3167
395 2 16 38.4 0 -9.86382
366 3 20.8 36.8 1.6 -11.3227
397 2 19.2 38.4 0 -9.83677
368 4 24 36.8 1.6 -13.3068
399 2 22.4 38.4 0 -9.88708
401 2 25.6 38.4 0 -9.81097
370 2 27.2 36.8 1.6 -9.76802
403 1 28.8 38.4 0 -11.6802
372 3 30.4 36.8 1.6 -11.2695
405 3 32 38.4 0 -11.341
374 4 33.6 36.8 1.6 -13.4145
407 3 35.2 38.4 0 -11.291
376 1 36.8 36.8 1.6 -11.7537
409 2 38.4 38.4 0 -9.73536
378 2 40 36.8 1.6 -9.78089
411 4 41.6 38.4 0 -13.1993
380 3 43.2 36.8 1.6 -11.2762
413 2 44.8 38.4 0 -9.7471
382 3 46.4 36.8 1.6 -11.1855
415 1 48 38.4 0 -11.7181
384 2 49.6 36.8 1.6 -9.7756
386 3 1.6 40 1.6 -11.2668
417 4 0 41.6 0 -13.3202
388 3 4.8 40 1.6 -11.3382
419 4 3.2 41.6 0 -13.3601
390 3 8 40 1.6 -11.264
421 4 6.4 41.6 0 -13.3199
392 2 11.2 40 1.6 -9.84358
423 4 9.6 41.6 0 -13.3221
394 2 14.4 40 1.6 -9.82335
425 2 12.8 41.6 0 -9.81924
396 4 17.6 40 1.6 -13.3089
427 3 16 41.6 0 -11.2946
398 4 20.8 40 1.6 -13.2815
429 2 19.2 41.6 0 -9.75383
400 4 24 40 1.6 -13.2799
431 2 22.4 41.6 0 -9.7585
433 2 25.6 41.6 0 -9.83867
402 4 27.2 40 1.6 -13.224
435 2 28.8 41.6 0 -9.79058
404 4 30.4 40 1.6 -13.3201
437 3 32 41.6 0 -11.2902
406 4 33.6 40 1.6 -13.3959
439 2 35.2 41.6 0 -9.80799
408 1 36.8 40 1.6 -11.7673
441 2 38.4 41.6 0 -9.7572
410 1 40 40 1.6 -11.6571
443 2 41.6 41.6 0 -9.69133
412 1 43.2 40 1.6 -11.6039
445 4 44.8 41.6 0 -13.2412
414 4 46.4 40 1.6 -13.1866
447 4 48 41.6 0 -13.2151
416 2 49.6 40 1.6 -9.75681
418 2 1.6 43.2 1.6 -9.85959
449 2 0 44.8 0 -9.91263
420 2 4.8 43.2 1.6 -9.84007
451 3 3.2 44.8 0 -11.3113
422 2 8 43.2 1.6 -9.86751
453 2 6.4 44.8 0 -9.81498
424 2 11.2 43.2 1.6 -9.83877
455 2 9.6 44.8 0 -9.86505
426 1 14.4 43.2 1.6 -11.766
457 2 12.8 44.8 0 -9.78228
428 4 17.6 43.2 1.6 -13.2785
459 3 16 44.8 0 -11.1621
430 1 20.8 43.2 1.6 -11.7289
461 2 19.2 44.8 0 -9.74232
432 1 24 43.2 1.6 -11.7556
463 3 22.4 44.8 0 -11.201
465 3 25.6 44.8 0 -11.2737
434 1 27.2 43.2 1.6 -11.7728
467 3 28.8 44.8 0 -11.1972
436 1 30.4 43.2 1.6 -11.7864
469 2 32 44.8 0 -9.77487
438 1 33.6 43.2 1.6 -11.817
471 3 35.2 44.8 0 -11.2023
440 1 36.8 43.2 1.6 -11.7958
473 3 38.4 44.8 0 -11.2734
442 4 40 43.2 1.6 -13.3499
475 3 41.6 44.8 0 -11.2981
444 4 43.2 43.2 1.6 -13.316
477 2 44.8 44.8 0 -9.78221
446 2 46.4 43.2 1.6 -9.80892
479 2 48 44.8 0 -9.84386
448 2 49.6 43.2 1.6 -9.86093
450 4 1.6 46.4 1.6 -13.3972
481 3 0 48 0 -11.3307
452 1 4.8 46.4 1.6 -11.8025
483 3 3.2 48 0 -11.3688
454 4 8 46.4 1.6 -13.3217
485 3 6.4 48 0 -11.3035
456 4 11.2 46.4 1.6 -13.3457
487 3 9.6 48 0 -11.2936
458 1 14.4 46.4 1.6 -11.7387
489 2 12.8 48 0 -9.77886
460 1 17.6 46.4 1.6 -11.8001
491 2 16 48 0 -9.677
462 1 20.8 46.4 1.6 -11.8122
493 3 19.2 48 0 -11.1639
464 1 24 46.4 1.6 -11.8555
495 3 22.4 48 0 -11.2417
497 3 25.6 48 0 -11.24
466 1 27.2 46.4 1.6 -11.828
499 2 28.8 48 0 -9.71256
468 1 30.4 46.4 1.6 -11.7844
501 3 32 48 0 -11.1991
470 1 33.6 46.4 1.6 -11.8121
503 3 35.2 48 0 -11.3385
472 1 36.8 46.4 1.6 -11.8556
505 3 38.4 48 0 -11.2727
474 1 40 46.4 1.6 -11.8554
507 3 41.6 48 0 -11.2042
476 1 43.2 46.4 1.6 -11.7674
509 2 44.8 48 0 -9.7411
478 1 46.4 46.4 1.6 -11.7446
511 3 48 48 0 -11.2692
480 4 49.6 46.4 1.6 -13.3773
482 4 1.6 49.6 1.6 -13.3759
484 4 4.8 49.6 1.6 -13.4032
486 4 8 49.6 1.6 -13.3783
488 4 11.2 49.6 1.6 -13.327
490 1 14.4 49.6 1.6 -11.7352
492 1 17.6 49.6 1.6 -11.7811
494 1 20.8 49.6 1.6 -11.8415
496 1 24 49.6 1.6 -11.8594
498 4 27.2 49.6 1.6 -13.2852
500 1 30.4 49.6 1.6 -11.7986
502 1 33.6 49.6 1.6 -11.8572
504 4 36.8 49.6 1.6 -13.336
506 1 40 49.6 1.6 -11.828
508 1 43.2 49.6 1.6 -11.8151
510 1 46.4 49.6 1.6 -11.7996
512 1 49.6 49.6 1.6 -11.8547
513 3 0 0 3.2 -11.2372
514 1 1.6 1.6 4.8 -11.7826
515 3 3.2 0 3.2 -11.27
516 1 4.8 1.6 4.8 -11.8123
517 3 6.4 0 3.2 -11.3076
518 1 8 1.6 4.8 -11.8414
519 3 9.6 0 3.2 -11.2702
520 1 11.2 1.6 4.8 -11.842
521 3 12.8 0 3.2 -11.2361
522 1 14.4 1.6 4.8 -11.8279
523 3 16 0 3.2 -11.2042
524 1 17.6 1.6 4.8 -11.8555
525 3 19.2 0 3.2 -11.2423
526 1 20.8 1.6 4.8 -11.7994
527 3 22.4 0 3.2 -11.1984
528 1 24 1.6 4.8 -11.7988
529 2 25.6 0 3.2 -9.86361
530 4 27.2 1.6 4.8 -13.3333
531 3 28.8 0 3.2 -11.2379
532 1 30.4 1.6 4.8 -11.8414
533 3 32 0 3.2 -11.2023
534 1 33.6 1.6 4.8 -11.8002
535 2 35.2 0 3.2 -9.77518
536 1 36.8 1.6 4.8 -11.7804
537 3 38.4 0 3.2 -11.2023
538 1 40 1.6 4.8 -11.8413
539 3 41.6 0 3.2 -11.2748
540 1 43.2 1.6 4.8 -11.8137
541 2 44.8 0 3.2 -9.77507
542 1 46.4 1.6 4.8 -11.7939
543 3 48 0 3.2 -11.2387
544 1 49.6 1.6 4.8 -11.8281
545 3 0 3.2 3.2 -11.1648
546 1 1.6 4.8 4.8 -11.7637
547 2 3.2 3.2 3.2 -9.70671
548 1 4.8 4.8 4.8 -11.781
549 3 6.4 3.2 3.2 -11.2036
550 1 8 4.8 4.8 -11.8416
551 3 9.6 3.2 3.2 -11.2756
552 1 11.2 4.8 4.8 -11.7974
553 3 12.8 3.2 3.2 -11.2767
554 1 14.4 4.8 4.8 -11.7876
555 3 16 3.2 3.2 -11.2394
556 4 17.6 4.8 4.8 -13.3615
557 3 19.2 3.2 3.2 -11.2381
558 1 20.8 4.8 4.8 -11.7514
559 2 22.4 3.2 3.2 -9.80514
560 4 24 4.8 4.8 -13.2719
561 3 25.6 3.2 3.2 -11.2908
562 4 27.2 4.8 4.8 -13.3971
563 3 28.8 3.2 3.2 -11.3008
564 4 30.4 4.8 4.8 -13.3769
565 2 32 3.2 3.2 -9.81076
566 4 33.6 4.8 4.8 -13.355
567 2 35.2 3.2 3.2 -9.80778
568 1 36.8 4.8 4.8 -11.832
569 3 38.4 3.2 3.2 -11.1632
570 1 40 4.8 4.8 -11.7846
571 3 41.6 3.2 3.2 -11.2722
572 1 43.2 4.8 4.8 -11.8248
573 3 44.8 3.2 3.2 -11.304
574 4 46.4 4.8 4.8 -13.3628
575 3 48 3.2 3.2 -11.2381
576 1 49.6 4.8 4.8 -11.8395
577 2 0 6.4 3.2 -9.70694
578 1 1.6 8 4.8 -11.7673
579 2 3.2 6.4 3.2 -9.67664
580 1 4.8 8 4.8 -11.8376
581 3 6.4 6.4 3.2 -11.2039
582 1 8 8 4.8 -11.7979
583 3 9.6 6.4 3.2 -11.2402
584 1 11.2 8 4.8 -11.7267
585 3 12.8 6.4 3.2 -11.1976
586 4 14.4 8 4.8 -13.2929
587 2 16 6.4 3.2 -9.82974
588 4 17.6 8 4.8 -13.3993
589 3 19.2 6.4 3.2 -11.2361
590 1 20.8 8 4.8 -11.7251
591 2 22.4 6.4 3.2 -9.65549
592 1 24 8 4.8 -11.6932
593 2 25.6 6.4 3.2 -9.80844
594 1 27.2 8 4.8 -11.7576
595 2 28.8 6.4 3.2 -9.81231
596 4 30.4 8 4.8 -13.3145
597 3 32 6.4 3.2 -11.3323
598 1 33.6 8 4.8 -11.8176
599 3 35.2 6.4 3.2 -11.2662
600 4 36.8 8 4.8 -13.2998
601 2 38.4 6.4 3.2 -9.81303
602 4 40 8 4.8 -13.2589
603 2 41.6 6.4 3.2 -9.72579
604 1 43.2 8 4.8 -11.746
605 3 44.8 6.4 3.2 -11.307
606 1 46.4 8 4.8 -11.871
607 3 48 6.4 3.2 -11.2721
608 1 49.6 8 4.8 -11.799
609 3 0 9.6 3.2 -11.1195
610 4 1.6 11.2 4.8 -13.3271
611 3 3.2 9.6 3.2 -11.3299
612 2 4.8 11.2 4.8 -9.83248
613 3 6.4 9.6 3.2 -11.3307
614 4 8 11.2 4.8 -13.3194
615 2 9.6 9.6 3.2 -9.84206
616 4 11.2 11.2 4.8 -13.2307
617 3 12.8 9.6 3.2 -11.2573
618 4 14.4 11.2 4.8 -13.3203
619 3 16 9.6 3.2 -11.3313
620 4 17.6 11.2 4.8 -13.3726
621 3 19.2 9.6 3.2 -11.3012
622 4 20.8 11.2 4.8 -13.2873
623 2 22.4 9.6 3.2 -9.7504
624 1 24 11.2 4.8 -11.7121
625 3 25.6 9.6 3.2 -11.1946
626 4 27.2 11.2 4.8 -13.2356
627 2 28.8 9.6 3.2 -9.79087
628 4 30.4 11.2 4.8 -13.2847
629 3 32 9.6 3.2 -11.2595
630 2 33.6 11.2 4.8 -9.78645
631 2 35.2 9.6 3.2 -9.76068
632 2 36.8 11.2 4.8 -9.83278
633 2 38.4 9.6 3.2 -9.84465
634 4 40 11.2 4.8 -13.3211
635 2 41.6 9.6 3.2 -9.69894
636 4 43.2 11.2 4.8 -13.2269
637 3 44.8 9.6 3.2 -11.2275
638 4 46.4 11.2 4.8 -13.2935
639 3 48 9.6 3.2 -11.2343
640 1 49.6 11.2 4.8 -11.7208
641 4 0 12.8 3.2 -13.2163
642 2 1.6 14.4 4.8 -9.79198
643 2 3.2 12.8 3.2 -9.86376
644 2 4.8 14.4 4.8 -9.87007
645 4 6.4 12.8 3.2 -13.3717
646 4 8 14.4 4.8 -13.2778
647 2 9.6 12.8 3.2 -9.78831
648 4 11.2 14.4 4.8 -13.2482
649 4 12.8 12.8 3.2 -13.3444
650 2 14.4 14.4 4.8 -9.836
651 2 16 12.8 3.2 -9.8447
652 4 17.6 14.4 4.8 -13.3248
653 3 19.2 12.8 3.2 -11.3267
654 1 20.8 14.4 4.8 -11.7861
655 2 22.4 12.8 3.2 -9.78222
656 1 24 14.4 4.8 -11.7263
657 2 25.6 12.8 3.2 -9.79021
658 4 27.2 14.4 4.8 -13.3235
659 4 28.8 12.8 3.2 -13.2434
660 2 30.4 14.4 4.8 -9.82168
661 4 32 12.8 3.2 -13.3276
662 3 33.6 14.4 4.8 -11.2517
663 4 35.2 12.8 3.2 -13.2898
664 4 36.8 14.4 4.8 -13.3114
665 3 38.4 12.8 3.2 -11.1615
666 2 40 14.4 4.8 -9.83955
667 4 41.6 12.8 3.2 -13.2504
668 4 43.2 14.4 4.8 -13.251
669 2 44.8 12.8 3.2 -9.82011
670 4 46.4 14.4 4.8 -13.2166
671 2 48 12.8 3.2 -9.73268
672 4 49.6 14.4 4.8 -13.2176
673 4 0 16 3.2 -13.2935
674 2 1.6 17.6 4.8 -9.83528
675 4 3.2 16 3.2 -13.352
676 3 4.8 17.6 4.8 -11.2217
677 4 6.4 16 3.2 -13.2834
678 2 8 17.6 4.8 -9.74297
679 4 9.6 16 3.2 -13.2477
680 2 11.2 17.6 4.8 -9.76592
681 2 12.8 16 3.2 -9.8018
682 2 14.4 17.6 4.8 -9.78933
683 4 16 16 3.2 -13.3079
684 4 17.6 17.6 4.8 -13.2869
685 2 19.2 16 3.2 -9.794
686 4 20.8 17.6 4.8 -13.2957
687 2 22.4 16 3.2 -9.7913
688 4 24 17.6 4.8 -13.3826
689 2 25.6 16 3.2 -9.86234
690 3 27.2 17.6 4.8 -11.261
691 4 28.8 16 3.2 -13.3118
692 2 30.4 17.6 4.8 -9.7597
693 4 32 16 3.2 -13.316
694 3 33.6 17.6 4.8 -11.2654
695 4 35.2 16 3.2 -13.3485
696 3 36.8 17.6 4.8 -11.3296
697 2 38.4 16 3.2 -9.8977
698 3 40 17.6 4.8 -11.3581
699 4 41.6 16 3.2 -13.3095
700 3 43.2 17.6 4.8 -11.3041
701 4 44.8 16 3.2 -13.3205
702 3 46.4 17.6 4.8 -11.2349
703 4 48 16 3.2 -13.3525
704 3 49.6 17.6 4.8 -11.1903
705 1 0 19.2 3.2 -11.7994
706 3 1.6 20.8 4.8 -11.1239
707 1 3.2 19.2 3.2 -11.8124
708 2 4.8 20.8 4.8 -9.71416
709 1 6.4 19.2 3.2 -11.7603
710 2 8 20.8 4.8 -9.76377
711 2 9.6 19.2 3.2 -9.74083
712 4 11.2 20.8 4.8 -13.2833
713 4 12.8 19.2 3.2 -13.3318
714 3 14.4 20.8 4.8 -11.1997
715 1 16 19.2 3.2 -11.7555
716 3 17.6 20.8 4.8 -11.197
717 4 19.2 19.2 3.2 -13.2689
718 3 20.8 20.8 4.8 -11.3251
719 2 22.4 19.2 3.2 -9.83207
720 3 24 20.8 4.8 -11.377
721 4 25.6 19.2 3.2 -13.3989
722 2 27.2 20.8 4.8 -9.8111
723 4 28.8 19.2 3.2 -13.2588
724 4 30.4 20.8 4.8 -13.199
725 4 32 19.2 3.2 -13.2782
726 3 33.6 20.8 4.8 -11.2729
727 1 35.2 19.2 3.2 -11.8418
728 3 36.8 20.8 4.8 -11.3094
729 4 38.4 19.2 3.2 -13.387
730 3 40 20.8 4.8 -11.2702
731 4 41.6 19.2 3.2 -13.3306
732 3 43.2 20.8 4.8 -11.2733
733 1 44.8 19.2 3.2 -11.8414
734 3 46.4 20.8 4.8 -11.2039
735 1 48 19.2 3.2 -11.8256
736 2 49.6 20.8 4.8 -9.73533
737 1 0 22.4 3.2 -11.8122
738 3 1.6 24 4.8 -11.2423
739 1 3.2 22.4 3.2 -11.8258
740 3 4.8 24 4.8 -11.2733
741 1 6.4 22.4 3.2 -11.8112
742 3 8 24 4.8 -11.3364
743 1 9.6 22.4 3.2 -11.8187
744 3 11.2 24 4.8 -11.2338
745 4 12.8 22.4 3.2 -13.3364
746 3 14.4 24 4.8 -11.2761
747 1 16 22.4 3.2 -11.8694
748 3 17.6 24 4.8 -11.2423
749 1 19.2 22.4 3.2 -11.8588
750 3 20.8 24 4.8 -11.2767
751 4 22.4 22.4 3.2 -13.4006
752 3 24 24 4.8 -11.232
753 4 25.6 22.4 3.2 -13.3099
754 2 27.2 24 4.8 -9.75316
755 1 28.8 22.4 3.2 -11.7182
756 3 30.4 24 4.8 -11.199
757 1 32 22.4 3.2 -11.7992
758 3 33.6 24 4.8 -11.2736
759 4 35.2 22.4 3.2 -13.3378
760 3 36.8 24 4.8 -11.2761
761 1 38.4 22.4 3.2 -11.8263
762 3 40 24 4.8 -11.2019
763 1 41.6 22.4 3.2 -11.8002
764 3 43.2 24 4.8 -11.2764
765 1 44.8 22.4 3.2 -11.812
766 3 46.4 24 4.8 -11.242
767 1 48 22.4 3.2 -11.826
768 3 49.6 24 4.8 -11.1639
769 1 0 25.6 3.2 -11.8415
771 1 3.2 25.6 3.2 -11.8557
773 4 6.4 25.6 3.2 -13.3645
775 1 9.6 25.6 3.2 -11.8415
777 1 12.8 25.6 3.2 -11.8258
779 1 16 25.6 3.2 -11.8556
781 1 19.2 25.6 3.2 -11.8413
783 1 22.4 25.6 3.2 -11.828
785 1 25.6 25.6 3.2 -11.7832
787 1 28.8 25.6 3.2 -11.7939
789 1 32 25.6 3.2 -11.7806
791 1 35.2 25.6 3.2 -11.8141
793 1 38.4 25.6 3.2 -11.7807
795 1 41.6 25.6 3.2 -11.7806
797 1 44.8 25.6 3.2 -11.8557
799 1 48 25.6 3.2 -11.8554
770 3 1.6 27.2 4.8 -11.2756
801 1 0 28.8 3.2 -11.8555
772 3 4.8 27.2 4.8 -11.2756
803 1 3.2 28.8 3.2 -11.8413
774 3 8 27.2 4.8 -11.2684
805 1 6.4 28.8 3.2 -11.8122
776 2 11.2 27.2 4.8 -9.77453
807 1 9.6 28.8 3.2 -11.7868
778 3 14.4 27.2 4.8 -11.2384
809 1 12.8 28.8 3.2 -11.8394
780 3 17.6 27.2 4.8 -11.2376
811 4 16 28.8 3.2 -13.3389
782 3 20.8 27.2 4.8 -11.2397
813 1 19.2 28.8 3.2 -11.8594
784 3 24 27.2 4.8 -11.2764
815 1 22.4 28.8 3.2 -11.8553
817 4 25.6 28.8 3.2 -13.4043
786 3 27.2 27.2 4.8 -11.2705
819 4 28.8 28.8 3.2 -13.381
788 3 30.4 27.2 4.8 -11.24
821 1 32 28.8 3.2 -11.7983
790 3 33.6 27.2 4.8 -11.2039
823 1 35.2 28.8 3.2 -11.8122
792 3 36.8 27.2 4.8 -11.242
825 1 38.4 28.8 3.2 -11.8258
794 3 40 27.2 4.8 -11.2045
827 1 41.6 28.8 3.2 -11.8136
796 3 43.2 27.2 4.8 -11.2005
829 4 44.8 28.8 3.2 -13.3136
798 3 46.4 27.2 4.8 -11.3097
831 1 48 28.8 3.2 -11.8577
800 3 49.6 27.2 4.8 -11.2727
802 3 1.6 30.4 4.8 -11.3073
833 1 0 32 3.2 -11.8696
804 3 4.8 30.4 4.8 -11.2021
835 1 3.2 32 3.2 -11.8416
806 2 8 30.4 4.8 -9.83567
837 4 6.4 32 3.2 -13.3098
808 3 11.2 30.4 4.8 -11.2659
839 4 9.6 32 3.2 -13.3332
810 3 14.4 30.4 4.8 -11.2729
841 1 12.8 32 3.2 -11.8588
812 2 17.6 30.4 4.8 -9.80702
843 1 16 32 3.2 -11.8574
814 3 20.8 30.4 4.8 -11.3085
845 4 19.2 32 3.2 -13.3737
816 3 24 30.4 4.8 -11.3057
847 1 22.4 32 3.2 -11.8589
849 4 25.6 32 3.2 -13.3459
818 3 27.2 30.4 4.8 -11.2592
851 4 28.8 32 3.2 -13.3193
820 2 30.4 30.4 4.8 -9.78084
853 1 32 32 3.2 -11.8038
822 3 33.6 30.4 4.8 -11.2402
855 1 35.2 32 3.2 -11.7845
824 3 36.8 30.4 4.8 -11.2734
857 4 38.4 32 3.2 -13.3005
826 3 40 30.4 4.8 -11.27
859 1 41.6 32 3.2 -11.7115
828 2 43.2 30.4 4.8 -9.78249
861 1 44.8 32 3.2 -11.7574
830 3 46.4 30.4 4.8 -11.271
863 1 48 32 3.2 -11.8117
832 3 49.6 30.4 4.8 -11.3383
834 3 1.6 33.6 4.8 -11.2342
865 4 0 35.2 3.2 -13.3383
836 2 4.8 33.6 4.8 -9.74088
867 1 3.2 35.2 3.2 -11.8395
838 3 8 33.6 4.8 -11.2335
869 1 6.4 35.2 3.2 -11.7982
840 2 11.2 33.6 4.8 -9.88944
871 1 9.6 35.2 3.2 -11.828
842 3 14.4 33.6 4.8 -11.3027
873 4 12.8 35.2 3.2 -13.3775
844 3 17.6 33.6 4.8 -11.2289
875 4 16 35.2 3.2 -13.2979
846 3 20.8 33.6 4.8 -11.2924
877 4 19.2 35.2 3.2 -13.3933
848 2 24 33.6 4.8 -9.81879
879 4 22.4 35.2 3.2 -13.344
881 4 25.6 35.2 3.2 -13.258
850 2 27.2 33.6 4.8 -9.75528
883 4 28.8 35.2 3.2 -13.3134
852 2 30.4 33.6 4.8 -9.81379
885 4 32 35.2 3.2 -13.373
854 3 33.6 33.6 4.8 -11.2983
887 4 35.2 35.2 3.2 -13.3314
856 2 36.8 33.6 4.8 -9.84165
889 2 38.4 35.2 3.2 -9.81669
858 2 40 33.6 4.8 -9.81599
891 4 41.6 35.2 3.2 -13.2572
860 2 43.2 33.6 4.8 -9.73179
893 1 44.8 35.2 3.2 -11.7884
862 3 46.4 33.6 4.8 -11.2367
895 1 48 35.2 3.2 -11.8171
864 3 49.6 33.6 4.8 -11.3094
866 3 1.6 36.8 4.8 -11.3422
897 1 0 38.4 3.2 -11.8551
868 3 4.8 36.8 4.8 -11.2384
899 4 3.2 38.4 3.2 -13.3628
870 3 8 36.8 4.8 -11.2019
901 1 6.4 38.4 3.2 -11.8394
872 3 11.2 36.8 4.8 -11.332
903 1 9.6 38.4 3.2 -11.827
874 2 14.4 36.8 4.8 -9.84576
905 4 12.8 38.4 3.2 -13.3504
876 4 17.6 36.8 4.8 -13.2259
907 2 16 38.4 3.2 -9.81542
878 2 20.8 36.8 4.8 -9.86759
909 2 19.2 38.4 3.2 -9.80779
880 2 24 36.8 4.8 -9.81561
911 2 22.4 38.4 3.2 -9.85994
913 2 25.6 38.4 3.2 -9.82039
882 4 27.2 36.8 4.8 -13.2063
915 4 28.8 38.4 3.2 -13.2474
884 3 30.4 36.8 4.8 -11.2815
917 2 32 38.4 3.2 -9.92325
886 2 33.6 36.8 4.8 -9.9093
919 3 35.2 38.4 3.2 -11.3167
888 2 36.8 36.8 4.8 -9.8289
921 2 38.4 38.4 3.2 -9.79417
890 4 40 36.8 4.8 -13.2699
923 4 41.6 38.4 3.2 -13.1864
892 2 43.2 36.8 4.8 -9.82261
925 4 44.8 38.4 3.2 -13.2685
894 2 46.4 36.8 4.8 -9.78653
927 4 48 38.4 3.2 -13.2152
896 3 49.6 36.8 4.8 -11.2714
898 3 1.6 40 4.8 -11.2653
929 4 0 41.6 3.2 -13.3246
900 3 4.8 40 4.8 -11.2746
931 1 3.2 41.6 3.2 -11.7673
902 3 8 40 4.8 -11.3323
933 4 6.4 41.6 3.2 -13.3537
904 3 11.2 40 4.8 -11.3107
935 4 9.6 41.6 3.2 -13.3671
906 4 14.4 40 4.8 -13.355
937 4 12.8 41.6 3.2 -13.3164
908 1 17.6 40 4.8 -11.7469
939 2 16 41.6 3.2 -9.82075
910 4 20.8 40 4.8 -13.3206
941 2 19.2 41.6 3.2 -9.75839
912 4 24 40 4.8 -13.3201
943 2 22.4 41.6 3.2 -9.75478
945 2 25.6 41.6 3.2 -9.7868
914 4 27.2 40 4.8 -13.3011
947 2 28.8 41.6 3.2 -9.76098
916 4 30.4 40 4.8 -13.2954
949 3 32 41.6 3.2 -11.266
918 4 33.6 40 4.8 -13.3726
951 3 35.2 41.6 3.2 -11.2693
920 4 36.8 40 4.8 -13.3545
953 3 38.4 41.6 3.2 -11.2292
922 4 40 40 4.8 -13.26
955 2 41.6 41.6 3.2 -9.79127
924 2 43.2 40 4.8 -9.76
957 2 44.8 41.6 3.2 -9.76506
926 4 46.4 40 4.8 -13.2107
959 4 48 41.6 3.2 -13.2831
928 3 49.6 40 4.8 -11.2571
930 4 1.6 43.2 4.8 -13.2479
961 2 0 44.8 3.2 -9.86595
932 2 4.8 43.2 4.8 -9.73492
963 4 3.2 44.8 3.2 -13.2608
934 2 8 43.2 4.8 -9.84736
965 2 6.4 44.8 3.2 -9.78623
936 2 11.2 43.2 4.8 -9.86288
967 4 9.6 44.8 3.2 -13.2739
938 4 14.4 43.2 4.8 -13.2951
969 2 12.8 44.8 3.2 -9.78968
940 1 17.6 43.2 4.8 -11.8263
971 3 16 44.8 3.2 -11.2389
942 1 20.8 43.2 4.8 -11.7964
973 3 19.2 44.8 3.2 -11.2026
944 1 24 43.2 4.8 -11.7883
975 3 22.4 44.8 3.2 -11.2013
977 3 25.6 44.8 3.2 -11.2382
946 4 27.2 43.2 4.8 -13.3041
979 3 28.8 44.8 3.2 -11.2411
948 1 30.4 43.2 4.8 -11.7864
981 3 32 44.8 3.2 -11.2039
950 1 33.6 43.2 4.8 -11.8155
983 3 35.2 44.8 3.2 -11.2426
952 1 36.8 43.2 4.8 -11.8033
985 3 38.4 44.8 3.2 -11.272
954 4 40 43.2 4.8 -13.3512
987 3 41.6 44.8 3.2 -11.302
956 4 43.2 43.2 4.8 -13.3515
989 2 44.8 44.8 3.2 -9.78456
958 4 46.4 43.2 4.8 -13.2506
991 2 48 44.8 3.2 -9.84025
960 2 49.6 43.2 4.8 -9.86384
962 4 1.6 46.4 4.8 -13.292
993 3 0 48 3.2 -11.3616
964 1 4.8 46.4 4.8 -11.7322
995 3 3.2 48 3.2 -11.2996
966 4 8 46.4 4.8 -13.2707
997 3 6.4 48 3.2 -11.3016
968 4 11.2 46.4 4.8 -13.2442
999 2 9.6 48 3.2 -9.86854
970 1 14.4 46.4 4.8 -11.787
1001 3 12.8 48 3.2 -11.1959
972 1 17.6 46.4 4.8 -11.8412
1003 3 16 48 3.2 -11.2045
974 1 20.8 46.4 4.8 -11.8434
1005 3 19.2 48 3.2 -11.242
976 4 24 46.4 4.8 -13.3525
1007 3 22.4 48 3.2 -11.3076
1009 3 25.6 48 3.2 -11.3055
978 1 27.2 46.4 4.8 -11.8317
1011 3 28.8 48 3.2 -11.2017
980 1 30.4 46.4 4.8 -11.8421
1013 3 32 48 3.2 -11.2426
982 1 33.6 46.4 4.8 -11.8413
1015 3 35.2 48 3.2 -11.2394
984 1 36.8 46.4 4.8 -11.7806
1017 3 38.4 48 3.2 -11.2384
986 1 40 46.4 4.8 -11.8132
1019 3 41.6 48 3.2 -11.2764
988 1 43.2 46.4 4.8 -11.8266
1021 3 44.8 48 3.2 -11.1613
990 1 46.4 46.4 4.8 -11.7715
1023 3 48 48 3.2 -11.3054
992 4 49.6 46.4 4.8 -13.3732
994 1 1.6 49.6 4.8 -11.844
996 1 4.8 49.6 4.8 -11.8553
998 1 8 49.6 4.8 -11.8434
1000 1 11.2 49.6 4.8 -11.7843
1002 1 14.4 49.6 4.8 -11.7983
1004 1 17.6 49.6 4.8 -11.8556
1006 1 20.8 49.6 4.8 -11.8436
1008 4 24 49.6 4.8 -13.3311
1010 1 27.2 49.6 4.8 -11.8287
1012 1 30.4 49.6 4.8 -11.8119
1014 1 33.6 49.6 4.8 -11.8258
1016 1 36.8 49.6 4.8 -11.7983
1018 1 40 49.6 4.8 -11.8416
1020 4 43.2 49.6 4.8 -13.3101
1022 1 46.4 49.6 4.8 -11.8122
1024 4 49.6 49.6 4.8 -13.3305
1025 2 0 0 6.4 -9.77648
1026 1 1.6 1.6 8 -11.8557
1027 3 3.2 0 6.4 -11.24
1028 1 4.8 1.6 8 -11.8413
1029 3 6.4 0 6.4 -11.2414
1030 1 8 1.6 8 -11.8556
1031 3 9.6 0 6.4 -11.24
1032 4 11.2 1.6 8 -13.3536
1033 2 12.8 0 6.4 -9.77838
1034 4 14.4 1.6 8 -13.3336
1035 3 16 0 6.4 -11.2704
1036 1 17.6 1.6 8 -11.8572
1037 3 19.2 0 6.4 -11.3044
1038 4 20.8 1.6 8 -13.3007
1039 2 22.4 0 6.4 -9.80887
1040 1 24 1.6 8 -11.7101
1041 3 25.6 0 6.4 -11.1591
1042 1 27.2 1.6 8 -11.7419
1043 3 28.8 0 6.4 -11.1999
1044 1 30.4 1.6 8 -11.7751
1045 3 32 0 6.4 -11.2742
1046 4 33.6 1.6 8 -13.3036
1047 3 35.2 0 6.4 -11.2361
1048 1 36.8 1.6 8 -11.8436
1049 3 38.4 0 6.4 -11.24
1050 1 40 1.6 8 -11.8121
1051 3 41.6 0 6.4 -11.2366
1052 1 43.2 1.6 8 -11.7111
1053 2 44.8 0 6.4 -9.7423
1054 1 46.4 1.6 8 -11.7533
1055 3 48 0 6.4 -11.2019
1056 1 49.6 1.6 8 -11.8254
1057 3 0 3.2 6.4 -11.2705
1058 4 1.6 4.8 8 -13.3043
1059 3 3.2 3.2 6.4 -11.2384
1060 1 4.8 4.8 8 -11.8284
1061 3 6.4 3.2 6.4 -11.2417
1062 1 8 4.8 8 -11.8556
1063 3 9.6 3.2 6.4 -11.3076
1064 4 11.2 4.8 8 -13.3556
1065 3 12.8 3.2 6.4 -11.2309
1066 1 14.4 4.8 8 -11.8022
1067 3 16 3.2 6.4 -11.3095
1068 1 17.6 4.8 8 -11.8286
1069 3 19.2 3.2 6.4 -11.3097
1070 1 20.8 4.8 8 -11.7731
1071 3 22.4 3.2 6.4 -11.0731
1072 4 24 4.8 8 -13.2773
1073 2 25.6 3.2 6.4 -9.8625
1074 4 27.2 4.8 8 -13.3226
1075 3 28.8 3.2 6.4 -11.3008
1076 1 30.4 4.8 8 -11.7834
1077 3 32 3.2 6.4 -11.27
1078 1 33.6 4.8 8 -11.8149
1079 3 35.2 3.2 6.4 -11.2741
1080 1 36.8 4.8 8 -11.7822
1081 3 38.4 3.2 6.4 -11.277
1082 4 40 4.8 8 -13.2791
1083 3 41.6 3.2 6.4 -11.2382
1084 4 43.2 4.8 8 -13.3011
1085 3 44.8 3.2 6.4 -11.1959
1086 1 46.4 4.8 8 -11.8538
1087 3 48 3.2 6.4 -11.3096
1088 4 49.6 4.8 8 -13.3872
1089 3 0 6.4 6.4 -11.1946
1090 1 1.6 8 8 -11.7612
1091 3 3.2 6.4 6.4 -11.2025
1092 1 4.8 8 8 -11.784
1093 3 6.4 6.4 6.4 -11.2426
1094 1 8 8 8 -11.7996
1095 3 9.6 6.4 6.4 -11.1987
1096 4 11.2 8 8 -13.2946
1097 4 12.8 6.4 6.4 -13.2019
1098 4 14.4 8 8 -13.3197
1099 3 16 6.4 6.4 -11.2574
1100 4 17.6 8 8 -13.315
1101 3 19.2 6.4 6.4 -11.2601
1102 2 20.8 8 8 -9.77009
1103 4 22.4 6.4 6.4 -13.2038
1104 4 24 8 8 -13.2996