ITEM: TIMESTEP
0
ITEM: NUMBER OF ATOMS
8192
ITEM: BOX BOUNDS pp pp pp
0.0000000000000000e+00 5.1200000000000003e+01
0.0000000000000000e+00 5.1200000000000003e+01
0.0000000000000000e+00 5.1200000000000003e+01
ITEM: ATOMS id type x y z c_eng
1 3 0 0 0 -11.2384
2 1 1.6 1.6 1.6 -11.7808
3 3 3.2 0 0 -11.2759
4 1 4.8 1.6 1.6 -11.8417
5 3 6.4 0 0 -11.2036
6 1 8 1.6 1.6 -11.8417
7 3 9.6 0 0 -11.2417
8 1 11.2 1.6 1.6 -11.8557
9 3 12.8 0 0 -11.2753
10 4 14.4 1.6 1.6 -13.3394
11 3 16 0 0 -11.3089
12 1 17.6 1.6 1.6 -11.8579
13 3 19.2 0 0 -11.2756
14 1 20.8 1.6 1.6 -11.8413
15 3 22.4 0 0 -11.2414
16 1 24 1.6 1.6 -11.8557
17 3 25.6 0 0 -11.2414
18 1 27.2 1.6 1.6 -11.8416
19 3 28.8 0 0 -11.2397
20 1 30.4 1.6 1.6 -11.7983
21 2 32 0 0 -9.80709
22 4 33.6 1.6 1.6 -13.354
23 3 35.2 0 0 -11.2697
24 1 36.8 1.6 1.6 -11.8256
25 3 38.4 0 0 -11.3091
26 1 40 1.6 1.6 -11.826
27 3 41.6 0 0 -11.3079
28 1 43.2 1.6 1.6 -11.8556
29 3 44.8 0 0 -11.3091
30 1 46.4 1.6 1.6 -11.8415
31 3 48 0 0 -11.2761
32 1 49.6 1.6 1.6 -11.7807
33 3 0 3.2 0 -11.2039
34 1 1.6 4.8 1.6 -11.826
35 3 3.2 3.2 0 -11.2417
36 1 4.8 4.8 1.6 -11.8416
37 3 6.4 3.2 0 -11.2414
38 1 8 4.8 1.6 -11.8416
39 3 9.6 3.2 0 -11.2414
40 1 11.2 4.8 1.6 -11.8557
41 3 12.8 3.2 0 -11.2756
42 1 14.4 4.8 1.6 -11.814
43 3 16 3.2 0 -11.2748
44 4 17.6 4.8 1.6 -13.3106
45 3 19.2 3.2 0 -11.2756
46 1 20.8 4.8 1.6 -11.8557
47 3 22.4 3.2 0 -11.2753
48 1 24 4.8 1.6 -11.8556
49 3 25.6 3.2 0 -11.2753
50 1 27.2 4.8 1.6 -11.8415
51 3 28.8 3.2 0 -11.2417
52 1 30.4 4.8 1.6 -11.8555
53 3 32 3.2 0 -11.3039
54 1 33.6 4.8 1.6 -11.8693
55 3 35.2 3.2 0 -11.3388
56 1 36.8 4.8 1.6 -11.7996
57 3 38.4 3.2 0 -11.1636
58 1 40 4.8 1.6 -11.7843
59 3 41.6 3.2 0 -11.3073
60 1 43.2 4.8 1.6 -11.8556
61 3 44.8 3.2 0 -11.3068
62 1 46.4 4.8 1.6 -11.8416
63 3 48 3.2 0 -11.242
64 1 49.6 4.8 1.6 -11.8123
65 3 0 6.4 0 -11.2387
66 4 1.6 8 1.6 -13.3834
67 3 3.2 6.4 0 -11.2756
68 1 4.8 8 1.6 -11.8415
69 3 6.4 6.4 0 -11.2417
70 1 8 8 1.6 -11.7964
71 3 9.6 6.4 0 -11.2759
72 4 11.2 8 1.6 -13.3081
73 3 12.8 6.4 0 -11.2767
74 1 14.4 8 1.6 -11.7876
75 3 16 6.4 0 -11.2017
76 1 17.6 8 1.6 -11.8577
77 3 19.2 6.4 0 -11.2761
78 1 20.8 8 1.6 -11.8277
79 3 22.4 6.4 0 -11.307
80 1 24 8 1.6 -11.7939
81 3 25.6 6.4 0 -11.3078
82 1 27.2 8 1.6 -11.7867
83 3 28.8 6.4 0 -11.24
84 4 30.4 8 1.6 -13.3322
85 3 32 6.4 0 -11.2726
86 1 33.6 8 1.6 -11.8037
87 3 35.2 6.4 0 -11.2384
88 1 36.8 8 1.6 -11.7515
89 2 38.4 6.4 0 -9.70683
90 1 40 8 1.6 -11.756
91 3 41.6 6.4 0 -11.2702
92 1 43.2 8 1.6 -11.7996
93 3 44.8 6.4 0 -11.2714
94 1 46.4 8 1.6 -11.7704
95 3 48 6.4 0 -11.1645
96 1 49.6 8 1.6 -11.7654
97 3 0 9.6 0 -11.2991
98 4 1.6 11.2 1.6 -13.3489
99 3 3.2 9.6 0 -11.3031
100 4 4.8 11.2 1.6 -13.2991
101 3 6.4 9.6 0 -11.2032
102 1 8 11.2 1.6 -11.7866
103 3 9.6 9.6 0 -11.2327
104 4 11.2 11.2 1.6 -13.296
105 3 12.8 9.6 0 -11.2315
106 4 14.4 11.2 1.6 -13.3219
107 3 16 9.6 0 -11.2718
108 4 17.6 11.2 1.6 -13.4005
109 3 19.2 9.6 0 -11.2693
110 4 20.8 11.2 1.6 -13.376
111 3 22.4 9.6 0 -11.3052
112 1 24 11.2 1.6 -11.7731
113 3 25.6 9.6 0 -11.194
114 4 27.2 11.2 1.6 -13.3505
115 2 28.8 9.6 0 -9.84215
116 2 30.4 11.2 1.6 -9.8465
117 2 32 9.6 0 -9.78616
118 4 33.6 11.2 1.6 -13.1752
119 3 35.2 9.6 0 -11.1231
120 1 36.8 11.2 1.6 -11.7029
121 2 38.4 9.6 0 -9.68526
122 4 40 11.2 1.6 -13.2949
123 3 41.6 9.6 0 -11.1986
124 1 43.2 11.2 1.6 -11.772
125 2 44.8 9.6 0 -9.78227
126 4 46.4 11.2 1.6 -13.2081
127 2 48 9.6 0 -9.75109
128 1 49.6 11.2 1.6 -11.7037
129 3 0 12.8 0 -11.241
130 2 1.6 14.4 1.6 -9.81609
131 4 3.2 12.8 0 -13.3243
132 4 4.8 14.4 1.6 -13.3428
133 2 6.4 12.8 0 -9.81678
134 2 8 14.4 1.6 -9.84286
135 2 9.6 12.8 0 -9.84808
136 1 11.2 14.4 1.6 -11.7499
137 2 12.8 12.8 0 -9.84842
138 4 14.4 14.4 1.6 -13.2545
139 3 16 12.8 0 -11.255
140 4 17.6 14.4 1.6 -13.3753
141 2 19.2 12.8 0 -9.86815
142 4 20.8 14.4 1.6 -13.2892
143 3 22.4 12.8 0 -11.2522
144 4 24 14.4 1.6 -13.3233
145 2 25.6 12.8 0 -9.87311
146 4 27.2 14.4 1.6 -13.3709
147 2 28.8 12.8 0 -9.84407
148 2 30.4 14.4 1.6 -9.82954
149 4 32 12.8 0 -13.1597
150 1 33.6 14.4 1.6 -11.6616
151 2 35.2 12.8 0 -9.66157
152 1 36.8 14.4 1.6 -11.6772
153 2 38.4 12.8 0 -9.78266
154 2 40 14.4 1.6 -9.80681
155 3 41.6 12.8 0 -11.2263
156 4 43.2 14.4 1.6 -13.3056
157 2 44.8 12.8 0 -9.79086
158 4 46.4 14.4 1.6 -13.2556
159 2 48 12.8 0 -9.76974
160 2 49.6 14.4 1.6 -9.76062
161 4 0 16 0 -13.3237
162 2 1.6 17.6 1.6 -9.75763
163 4 3.2 16 0 -13.1999
164 2 4.8 17.6 1.6 -9.78764
165 4 6.4 16 0 -13.3513
166 2 8 17.6 1.6 -9.93261
167 4 9.6 16 0 -13.3393
168 3 11.2 17.6 1.6 -11.2138
169 2 12.8 16 0 -9.77071
170 2 14.4 17.6 1.6 -9.87127
171 4 16 16 0 -13.358
172 2 17.6 17.6 1.6 -9.82778
173 2 19.2 16 0 -9.84586
174 1 20.8 17.6 1.6 -11.74
175 4 22.4 16 0 -13.2781
176 4 24 17.6 1.6 -13.2815
177 2 25.6 16 0 -9.86295
178 2 27.2 17.6 1.6 -9.83854
179 2 28.8 16 0 -9.83889
180 2 30.4 17.6 1.6 -9.81746
181 2 32 16 0 -9.79025
182 2 33.6 17.6 1.6 -9.79274
183 2 35.2 16 0 -9.7555
184 3 36.8 17.6 1.6 -11.254
185 2 38.4 16 0 -9.82867
186 3 40 17.6 1.6 -11.2896
187 4 41.6 16 0 -13.2965
188 3 43.2 17.6 1.6 -11.2812
189 4 44.8 16 0 -13.2647
190 2 46.4 17.6 1.6 -9.82127
191 1 48 16 0 -11.7087
192 2 49.6 17.6 1.6 -9.79295
193 4 0 19.2 0 -13.3188
194 2 1.6 20.8 1.6 -9.71582
195 1 3.2 19.2 0 -11.7727
196 3 4.8 20.8 1.6 -11.2357
197 4 6.4 19.2 0 -13.3528
198 3 8 20.8 1.6 -11.3023
199 1 9.6 19.2 0 -11.8313
200 3 11.2 20.8 1.6 -11.3375
201 1 12.8 19.2 0 -11.8322
202 3 14.4 20.8 1.6 -11.2291
203 1 16 19.2 0 -11.7639
204 2 17.6 20.8 1.6 -9.81681
205 2 19.2 19.2 0 -9.78562
206 4 20.8 20.8 1.6 -13.2456
207 2 22.4 19.2 0 -9.83012
208 2 24 20.8 1.6 -9.85335
209 4 25.6 19.2 0 -13.3234
210 4 27.2 20.8 1.6 -13.2848
211 1 28.8 19.2 0 -11.7393
212 2 30.4 20.8 1.6 -9.73237
213 1 32 19.2 0 -11.7018
214 2 33.6 20.8 1.6 -9.75416
215 1 35.2 19.2 0 -11.7861
216 3 36.8 20.8 1.6 -11.273
217 4 38.4 19.2 0 -13.2949
218 2 40 20.8 1.6 -9.81288
219 4 41.6 19.2 0 -13.344
220 2 43.2 20.8 1.6 -9.81186
221 1 44.8 19.2 0 -11.7712
222 4 46.4 20.8 1.6 -13.1139
223 4 48 19.2 0 -13.2973
224 2 49.6 20.8 1.6 -9.78851
225 4 0 22.4 0 -13.3577
226 3 1.6 24 1.6 -11.24
227 1 3.2 22.4 0 -11.7983
228 3 4.8 24 1.6 -11.2039
229 1 6.4 22.4 0 -11.7939
230 3 8 24 1.6 -11.2384
231 1 9.6 22.4 0 -11.794
232 3 11.2 24 1.6 -11.2666
233 1 12.8 22.4 0 -11.7993
234 2 14.4 24 1.6 -9.78849
235 1 16 22.4 0 -11.7741
236 2 17.6 24 1.6 -9.82094
237 4 19.2 22.4 0 -13.2782
238 1 20.8 24 1.6 -11.722
239 2 22.4 22.4 0 -9.83032
240 4 24 24 1.6 -13.2829
241 4 25.6 22.4 0 -13.3712
242 2 27.2 24 1.6 -9.86686
243 4 28.8 22.4 0 -13.2927
244 2 30.4 24 1.6 -9.78161
245 1 32 22.4 0 -11.7564
246 2 33.6 24 1.6 -9.74755
247 4 35.2 22.4 0 -13.3086
248 3 36.8 24 1.6 -11.2366
249 1 38.4 22.4 0 -11.7813
250 3 40 24 1.6 -11.2697
251 4 41.6 22.4 0 -13.2935
252 3 43.2 24 1.6 -11.2368
253 1 44.8 22.4 0 -11.7536
254 3 46.4 24 1.6 -11.1224
255 4 48 22.4 0 -13.3039
256 3 49.6 24 1.6 -11.2737
257 1 0 25.6 0 -11.8557
259 1 3.2 25.6 0 -11.8123
261 1 6.4 25.6 0 -11.781
263 1 9.6 25.6 0 -11.7806
265 1 12.8 25.6 0 -11.8168
267 4 16 25.6 0 -13.3005
269 4 19.2 25.6 0 -13.3613
271 2 22.4 25.6 0 -9.8168
273 4 25.6 25.6 0 -13.3373
275 2 28.8 25.6 0 -9.82301
277 4 32 25.6 0 -13.2765
279 1 35.2 25.6 0 -11.8459
281 4 38.4 25.6 0 -13.3762
283 4 41.6 25.6 0 -13.376
285 1 44.8 25.6 0 -11.7388
287 1 48 25.6 0 -11.8282
258 3 1.6 27.2 1.6 -11.2414
289 1 0 28.8 0 -11.8417
260 3 4.8 27.2 1.6 -11.2417
291 1 3.2 28.8 0 -11.8416
262 3 8 27.2 1.6 -11.2417
293 1 6.4 28.8 0 -11.8558
264 3 11.2 27.2 1.6 -11.2748
295 1 9.6 28.8 0 -11.8557
266 2 14.4 27.2 1.6 -9.84225
297 4 12.8 28.8 0 -13.3383
268 2 17.6 27.2 1.6 -9.75898
299 1 16 28.8 0 -11.8018
270 2 20.8 27.2 1.6 -9.72835
301 1 19.2 28.8 0 -11.7344
272 2 24 27.2 1.6 -9.75755
303 1 22.4 28.8 0 -11.7568
305 1 25.6 28.8 0 -11.7427
274 2 27.2 27.2 1.6 -9.83655
307 1 28.8 28.8 0 -11.7257
276 2 30.4 27.2 1.6 -9.76049
309 4 32 28.8 0 -13.2917
278 3 33.6 27.2 1.6 -11.1943
311 4 35.2 28.8 0 -13.2929
280 2 36.8 27.2 1.6 -9.78223
313 4 38.4 28.8 0 -13.2878
282 3 40 27.2 1.6 -11.2507
315 2 41.6 28.8 0 -9.7747
284 2 43.2 27.2 1.6 -9.78145
317 1 44.8 28.8 0 -11.7439
286 3 46.4 27.2 1.6 -11.2048
319 1 48 28.8 0 -11.8415
288 3 49.6 27.2 1.6 -11.2414
290 3 1.6 30.4 1.6 -11.2414
321 1 0 32 0 -11.8416
292 3 4.8 30.4 1.6 -11.2417
323 1 3.2 32 0 -11.8417
294 3 8 30.4 1.6 -11.2036
325 1 6.4 32 0 -11.8122
296 3 11.2 30.4 1.6 -11.2387
327 1 9.6 32 0 -11.7508
298 3 14.4 30.4 1.6 -11.2701
329 1 12.8 32 0 -11.7938
300 2 17.6 30.4 1.6 -9.75038
331 1 16 32 0 -11.8268
302 2 20.8 30.4 1.6 -9.6833
333 1 19.2 32 0 -11.7848
304 3 24 30.4 1.6 -11.0824
335 1 22.4 32 0 -11.7997
337 1 25.6 32 0 -11.7828
306 3 27.2 30.4 1.6 -11.1238
339 1 28.8 32 0 -11.7699
308 2 30.4 30.4 1.6 -9.71992
341 4 32 32 0 -13.2942
310 2 33.6 30.4 1.6 -9.75738
343 4 35.2 32 0 -13.2886
312 4 36.8 30.4 1.6 -13.1402
345 2 38.4 32 0 -9.73472
314 1 40 30.4 1.6 -11.6935
347 2 41.6 32 0 -9.83127
316 2 43.2 30.4 1.6 -9.81651
349 4 44.8 32 0 -13.3539
318 3 46.4 30.4 1.6 -11.24
351 1 48 32 0 -11.8696
320 3 49.6 30.4 1.6 -11.2414
322 3 1.6 33.6 1.6 -11.2414
353 1 0 35.2 0 -11.8555
324 3 4.8 33.6 1.6 -11.2033
355 1 3.2 35.2 0 -11.8415
326 2 8 33.6 1.6 -9.74232
357 1 6.4 35.2 0 -11.8258
328 2 11.2 33.6 1.6 -9.68847
359 1 9.6 35.2 0 -11.7242
330 3 14.4 33.6 1.6 -11.2676
361 1 12.8 35.2 0 -11.7119
332 2 17.6 33.6 1.6 -9.81999
363 4 16 35.2 0 -13.2716
334 3 20.8 33.6 1.6 -11.2602
365 4 19.2 35.2 0 -13.3279
336 2 24 33.6 1.6 -9.83002
367 4 22.4 35.2 0 -13.3556
369 1 25.6 35.2 0 -11.7668
338 3 27.2 33.6 1.6 -11.1995
371 1 28.8 35.2 0 -11.7408
340 2 30.4 33.6 1.6 -9.76088
373 4 32 35.2 0 -13.2551
342 2 33.6 33.6 1.6 -9.79132
375 2 35.2 35.2 0 -9.81579
344 4 36.8 33.6 1.6 -13.3111
377 2 38.4 35.2 0 -9.78922
346 4 40 33.6 1.6 -13.2229
379 4 41.6 35.2 0 -13.224
348 2 43.2 33.6 1.6 -9.8415
381 1 44.8 35.2 0 -11.7452
350 3 46.4 33.6 1.6 -11.201
383 1 48 35.2 0 -11.7822
352 3 49.6 33.6 1.6 -11.2417
354 3 1.6 36.8 1.6 -11.2761
385 4 0 38.4 0 -13.3317
356 3 4.8 36.8 1.6 -11.2397
387 1 3.2 38.4 0 -11.7994
358 3 8 36.8 1.6 -11.2674
389 1 6.4 38.4 0 -11.8308
360 2 11.2 36.8 1.6 -9.73595
391 4 9.6 38.4 0 -13.2388
362 2 14.4 36.8 1.6 -9.73555
393 4 12.8 38.4 0 -13.1998
364 4 17.6 36.8 1.6 -13.3363
395 4 16 38.4 0 -13.2277
366 2 20.8 36.8 1.6 -9.89014
397 2 19.2 38.4 0 -9.80349
368 3 24 36.8 1.6 -11.2778
399 4 22.4 38.4 0 -13.3145
401 4 25.6 38.4 0 -13.3067
370 2 27.2 36.8 1.6 -9.81524
403 3 28.8 38.4 0 -11.2144
372 4 30.4 36.8 1.6 -13.2273
405 2 32 38.4 0 -9.79016
374 4 33.6 36.8 1.6 -13.2561
407 2 35.2 38.4 0 -9.76255
376 4 36.8 36.8 1.6 -13.317
409 2 38.4 38.4 0 -9.76249
378 4 40 36.8 1.6 -13.2541
411 2 41.6 38.4 0 -9.78828
380 2 43.2 36.8 1.6 -9.78759
413 2 44.8 38.4 0 -9.76171
382 2 46.4 36.8 1.6 -9.75843
415 4 48 38.4 0 -13.2644
384 3 49.6 36.8 1.6 -11.2712
386 3 1.6 40 1.6 -11.1959
417 4 0 41.6 0 -13.2943
388 2 4.8 40 1.6 -9.75801
419 1 3.2 41.6 0 -11.7159
390 2 8 40 1.6 -9.76551
421 4 6.4 41.6 0 -13.1377
392 4 11.2 40 1.6 -13.1973
423 4 9.6 41.6 0 -13.2224
394 1 14.4 40 1.6 -11.6983
425 3 12.8 41.6 0 -11.2167
396 2 17.6 40 1.6 -9.79994
427 4 16 41.6 0 -13.3037
398 4 20.8 40 1.6 -13.3185
429 4 19.2 41.6 0 -13.2498
400 1 24 40 1.6 -11.7407
431 2 22.4 41.6 0 -9.76224
433 3 25.6 41.6 0 -11.2349
402 4 27.2 40 1.6 -13.3337
435 3 28.8 41.6 0 -11.3084
404 1 30.4 40 1.6 -11.7731
437 3 32 41.6 0 -11.1621
406 1 33.6 40 1.6 -11.7143
439 2 35.2 41.6 0 -9.75432
408 1 36.8 40 1.6 -11.7606
441 3 38.4 41.6 0 -11.2356
410 4 40 40 1.6 -13.301
443 3 41.6 41.6 0 -11.274
412 4 43.2 40 1.6 -13.3263
445 3 44.8 41.6 0 -11.2353
414 4 46.4 40 1.6 -13.2595
447 2 48 41.6 0 -9.7659
416 2 49.6 40 1.6 -9.79191
418 2 1.6 43.2 1.6 -9.81496
449 2 0 44.8 0 -9.78071
420 1 4.8 43.2 1.6 -11.6159
451 2 3.2 44.8 0 -9.84618
422 1 8 43.2 1.6 -11.6253
453 2 6.4 44.8 0 -9.75309
424 4 11.2 43.2 1.6 -13.2739
455 2 9.6 44.8 0 -9.81196
426 1 14.4 43.2 1.6 -11.7986
457 3 12.8 44.8 0 -11.2661
428 4 17.6 43.2 1.6 -13.3308
459 3 16 44.8 0 -11.2646
430 4 20.8 43.2 1.6 -13.2409
461 2 19.2 44.8 0 -9.81807
432 1 24 43.2 1.6 -11.8017
463 3 22.4 44.8 0 -11.1997
465 3 25.6 44.8 0 -11.2039
434 1 27.2 43.2 1.6 -11.8557
467 3 28.8 44.8 0 -11.242
436 1 30.4 43.2 1.6 -11.8121
469 3 32 44.8 0 -11.2045
438 1 33.6 43.2 1.6 -11.7293
471 2 35.2 44.8 0 -9.74729
440 4 36.8 43.2 1.6 -13.2189
473 3 38.4 44.8 0 -11.2004
442 1 40 43.2 1.6 -11.8415
475 3 41.6 44.8 0 -11.2758
444 1 43.2 43.2 1.6 -11.8573
477 3 44.8 44.8 0 -11.3049
446 4 46.4 43.2 1.6 -13.2929
479 2 48 44.8 0 -9.81708
448 4 49.6 43.2 1.6 -13.2558
450 1 1.6 46.4 1.6 -11.7349
481 3 0 48 0 -11.1595
452 4 4.8 46.4 1.6 -13.2934
483 3 3.2 48 0 -11.3036
454 1 8 46.4 1.6 -11.7281
485 2 6.4 48 0 -9.80598
456 1 11.2 46.4 1.6 -11.8304
487 3 9.6 48 0 -11.2678
458 1 14.4 46.4 1.6 -11.8255
489 3 12.8 48 0 -11.3086
460 4 17.6 46.4 1.6 -13.3262
491 3 16 48 0 -11.3076
462 1 20.8 46.4 1.6 -11.7598
493 3 19.2 48 0 -11.2357
464 1 24 46.4 1.6 -11.8282
495 3 22.4 48 0 -11.2423
497 3 25.6 48 0 -11.242
466 1 27.2 46.4 1.6 -11.8123
499 3 28.8 48 0 -11.2381
468 1 30.4 46.4 1.6 -11.7808
501 3 32 48 0 -11.2007
470 1 33.6 46.4 1.6 -11.7527
503 3 35.2 48 0 -11.2719
472 1 36.8 46.4 1.6 -11.7851
505 3 38.4 48 0 -11.3395
474 1 40 46.4 1.6 -11.855
507 3 41.6 48 0 -11.3091
476 4 43.2 46.4 1.6 -13.3604
509 3 44.8 48 0 -11.2698
478 4 46.4 46.4 1.6 -13.2915
511 3 48 48 0 -11.1983
480 1 49.6 46.4 1.6 -11.6495
482 1 1.6 49.6 1.6 -11.779
484 1 4.8 49.6 1.6 -11.7982
486 1 8 49.6 1.6 -11.7807
488 1 11.2 49.6 1.6 -11.8555
490 1 14.4 49.6 1.6 -11.8696
492 4 17.6 49.6 1.6 -13.3615
494 1 20.8 49.6 1.6 -11.8439
496 1 24 49.6 1.6 -11.8414
498 1 27.2 49.6 1.6 -11.8122
500 1 30.4 49.6 1.6 -11.7549
502 1 33.6 49.6 1.6 -11.7677
504 1 36.8 49.6 1.6 -11.8696
506 4 40 49.6 1.6 -13.3639
508 1 43.2 49.6 1.6 -11.8415
510 1 46.4 49.6 1.6 -11.7783
512 1 49.6 49.6 1.6 -11.7439
513 2 0 0 3.2 -9.78296
514 1 1.6 1.6 4.8 -11.7826
515 3 3.2 0 3.2 -11.2405
516 1 4.8 1.6 4.8 -11.7808
517 3 6.4 0 3.2 -11.2039
518 1 8 1.6 4.8 -11.8122
519 3 9.6 0 3.2 -11.2756
520 1 11.2 1.6 4.8 -11.8259
521 3 12.8 0 3.2 -11.3084
522 1 14.4 1.6 4.8 -11.8156
523 3 16 0 3.2 -11.2733
524 1 17.6 1.6 4.8 -11.7978
525 3 19.2 0 3.2 -11.2374
526 1 20.8 1.6 4.8 -11.8149
527 3 22.4 0 3.2 -11.3094
528 4 24 1.6 4.8 -13.3609
529 3 25.6 0 3.2 -11.2761
530 1 27.2 1.6 4.8 -11.8106
531 3 28.8 0 3.2 -11.1225
532 1 30.4 1.6 4.8 -11.756
533 2 32 0 3.2 -9.75377
534 4 33.6 1.6 4.8 -13.3315
535 3 35.2 0 3.2 -11.2734
536 1 36.8 1.6 4.8 -11.8416
537 3 38.4 0 3.2 -11.2376
538 1 40 1.6 4.8 -11.812
539 3 41.6 0 3.2 -11.2761
540 1 43.2 1.6 4.8 -11.8556
541 3 44.8 0 3.2 -11.2045
542 1 46.4 1.6 4.8 -11.8278
543 3 48 0 3.2 -11.2018
544 1 49.6 1.6 4.8 -11.7989
545 2 0 3.2 3.2 -9.70671
546 1 1.6 4.8 4.8 -11.7976
547 3 3.2 3.2 3.2 -11.1642
548 1 4.8 4.8 4.8 -11.781
549 3 6.4 3.2 3.2 -11.2036
550 1 8 4.8 4.8 -11.8124
551 3 9.6 3.2 3.2 -11.242
552 1 11.2 4.8 4.8 -11.8123
553 3 12.8 3.2 3.2 -11.2002
554 1 14.4 4.8 4.8 -11.7522
555 2 16 3.2 3.2 -9.77506
556 1 17.6 4.8 4.8 -11.8271
557 3 19.2 3.2 3.2 -11.24
558 1 20.8 4.8 4.8 -11.8278
559 3 22.4 3.2 3.2 -11.2391
560 1 24 4.8 4.8 -11.8279
561 3 25.6 3.2 3.2 -11.2756
562 1 27.2 4.8 4.8 -11.8413
563 3 28.8 3.2 3.2 -11.2423
564 1 30.4 4.8 4.8 -11.8554
565 3 32 3.2 3.2 -11.2729
566 1 33.6 4.8 4.8 -11.857
567 3 35.2 3.2 3.2 -11.3039
568 4 36.8 4.8 4.8 -13.3354
569 2 38.4 3.2 3.2 -9.76912
570 1 40 4.8 4.8 -11.7898
571 3 41.6 3.2 3.2 -11.2033
572 1 43.2 4.8 4.8 -11.8415
573 3 44.8 3.2 3.2 -11.2414
574 1 46.4 4.8 4.8 -11.8416
575 3 48 3.2 3.2 -11.2039
576 1 49.6 4.8 4.8 -11.8123
577 3 0 6.4 3.2 -11.235
578 4 1.6 8 4.8 -13.3828
579 3 3.2 6.4 3.2 -11.3078
580 1 4.8 8 4.8 -11.8414
581 3 6.4 6.4 3.2 -11.2039
582 1 8 8 4.8 -11.7807
583 3 9.6 6.4 3.2 -11.24
584 1 11.2 8 4.8 -11.7854
585 3 12.8 6.4 3.2 -11.1616
586 1 14.4 8 4.8 -11.7594
587 2 16 6.4 3.2 -9.77528
588 4 17.6 8 4.8 -13.3072
589 3 19.2 6.4 3.2 -11.2751
590 1 20.8 8 4.8 -11.8014
591 3 22.4 6.4 3.2 -11.2042
592 1 24 8 4.8 -11.7498
593 3 25.6 6.4 3.2 -11.2042
594 1 27.2 8 4.8 -11.7988
595 3 28.8 6.4 3.2 -11.2732
596 4 30.4 8 4.8 -13.3768
597 3 32 6.4 3.2 -11.3063
598 4 33.6 8 4.8 -13.3441
599 3 35.2 6.4 3.2 -11.3021
600 2 36.8 8 4.8 -9.87402
601 3 38.4 6.4 3.2 -11.1901
602 4 40 8 4.8 -13.3336
603 3 41.6 6.4 3.2 -11.2408
604 1 43.2 8 4.8 -11.7985
605 3 44.8 6.4 3.2 -11.2423
606 1 46.4 8 4.8 -11.8122
607 3 48 6.4 3.2 -11.2042
608 1 49.6 8 4.8 -11.8137
609 2 0 9.6 3.2 -9.81041
610 4 1.6 11.2 4.8 -13.3685
611 3 3.2 9.6 3.2 -11.3266
612 4 4.8 11.2 4.8 -13.3532
613 2 6.4 9.6 3.2 -9.77219
614 1 8 11.2 4.8 -11.799
615 2 9.6 9.6 3.2 -9.75496
616 4 11.2 11.2 4.8 -13.3147
617 4 12.8 9.6 3.2 -13.2005
618 1 14.4 11.2 4.8 -11.7422
619 3 16 9.6 3.2 -11.189
620 1 17.6 11.2 4.8 -11.7847
621 3 19.2 9.6 3.2 -11.3017
622 4 20.8 11.2 4.8 -13.2352
623 2 22.4 9.6 3.2 -9.71583
624 1 24 11.2 4.8 -11.7017
625 2 25.6 9.6 3.2 -9.71844
626 4 27.2 11.2 4.8 -13.3219
627 2 28.8 9.6 3.2 -9.84219
628 4 30.4 11.2 4.8 -13.3096
629 2 32 9.6 3.2 -9.81819
630 1 33.6 11.2 4.8 -11.7055
631 2 35.2 9.6 3.2 -9.81701
632 2 36.8 11.2 4.8 -9.87802
633 2 38.4 9.6 3.2 -9.83556
634 2 40 11.2 4.8 -9.87647
635 2 41.6 9.6 3.2 -9.78278
636 1 43.2 11.2 4.8 -11.7018
637 3 44.8 9.6 3.2 -11.1641
638 1 46.4 11.2 4.8 -11.7141
639 2 48 9.6 3.2 -9.68996
640 4 49.6 11.2 4.8 -13.224
641 4 0 12.8 3.2 -13.2754
642 2 1.6 14.4 4.8 -9.83879
643 2 3.2 12.8 3.2 -9.84462
644 4 4.8 14.4 4.8 -13.2826
645 3 6.4 12.8 3.2 -11.319
646 4 8 14.4 4.8 -13.3947
647 3 9.6 12.8 3.2 -11.2928
648 4 11.2 14.4 4.8 -13.2512
649 2 12.8 12.8 3.2 -9.76663
650 1 14.4 14.4 4.8 -11.7056
651 3 16 12.8 3.2 -11.2607
652 1 17.6 14.4 4.8 -11.7204
653 3 19.2 12.8 3.2 -11.2968
654 1 20.8 14.4 4.8 -11.7186
655 2 22.4 12.8 3.2 -9.81645
656 4 24 14.4 4.8 -13.2258
657 3 25.6 12.8 3.2 -11.2481
658 2 27.2 14.4 4.8 -9.85774
659 2 28.8 12.8 3.2 -9.88856
660 2 30.4 14.4 4.8 -9.84156
661 2 32 12.8 3.2 -9.81598
662 2 33.6 14.4 4.8 -9.79261
663 2 35.2 12.8 3.2 -9.75933
664 3 36.8 14.4 4.8 -11.2447
665 2 38.4 12.8 3.2 -9.83104
666 2 40 14.4 4.8 -9.8398
667 2 41.6 12.8 3.2 -9.84347
668 2 43.2 14.4 4.8 -9.78757
669 3 44.8 12.8 3.2 -11.182
670 4 46.4 14.4 4.8 -13.2867
671 4 48 12.8 3.2 -13.1778
672 2 49.6 14.4 4.8 -9.84051
673 4 0 16 3.2 -13.2507
674 2 1.6 17.6 4.8 -9.69418
675 4 3.2 16 3.2 -13.292
676 4 4.8 17.6 4.8 -13.2208
677 3 6.4 16 3.2 -11.288
678 2 8 17.6 4.8 -9.7788
679 2 9.6 16 3.2 -9.88283
680 4 11.2 17.6 4.8 -13.2455
681 4 12.8 16 3.2 -13.2532
682 2 14.4 17.6 4.8 -9.7855
683 2 16 16 3.2 -9.81611
684 4 17.6 17.6 4.8 -13.3227
685 3 19.2 16 3.2 -11.2573
686 4 20.8 17.6 4.8 -13.2867
687 2 22.4 16 3.2 -9.7379
688 4 24 17.6 4.8 -13.2481
689 2 25.6 16 3.2 -9.84321
690 2 27.2 17.6 4.8 -9.85228
691 4 28.8 16 3.2 -13.3724
692 1 30.4 17.6 4.8 -11.7058
693 2 32 16 3.2 -9.81612
694 2 33.6 17.6 4.8 -9.82237
695 4 35.2 16 3.2 -13.299
696 2 36.8 17.6 4.8 -9.78102
697 1 38.4 16 3.2 -11.7202
698 2 40 17.6 4.8 -9.75286
699 1 41.6 16 3.2 -11.7664
700 2 43.2 17.6 4.8 -9.8671
701 2 44.8 16 3.2 -9.84473
702 3 46.4 17.6 4.8 -11.3099
703 4 48 16 3.2 -13.2766
704 2 49.6 17.6 4.8 -9.83972
705 1 0 19.2 3.2 -11.6851
706 2 1.6 20.8 4.8 -9.71174
707 1 3.2 19.2 3.2 -11.6626
708 3 4.8 20.8 4.8 -11.1165
709 4 6.4 19.2 3.2 -13.3312
710 2 8 20.8 4.8 -9.81138
711 4 9.6 19.2 3.2 -13.3153
712 2 11.2 20.8 4.8 -9.8666
713 4 12.8 19.2 3.2 -13.3182
714 2 14.4 20.8 4.8 -9.84275
715 4 16 19.2 3.2 -13.3199
716 4 17.6 20.8 4.8 -13.3452
717 2 19.2 19.2 3.2 -9.87234
718 4 20.8 20.8 4.8 -13.3392
719 2 22.4 19.2 3.2 -9.84504
720 4 24 20.8 4.8 -13.3405
721 2 25.6 19.2 3.2 -9.86854
722 4 27.2 20.8 4.8 -13.3373
723 2 28.8 19.2 3.2 -9.81461
724 2 30.4 20.8 4.8 -9.79001
725 4 32 19.2 3.2 -13.2685
726 3 33.6 20.8 4.8 -11.2978
727 4 35.2 19.2 3.2 -13.3282
728 3 36.8 20.8 4.8 -11.3062
729 1 38.4 19.2 3.2 -11.815
730 3 40 20.8 4.8 -11.271
731 2 41.6 19.2 3.2 -9.79025
732 3 43.2 20.8 4.8 -11.2332
733 4 44.8 19.2 3.2 -13.3069
734 2 46.4 20.8 4.8 -9.7812
735 4 48 19.2 3.2 -13.2591
736 3 49.6 20.8 4.8 -11.1927
737 1 0 22.4 3.2 -11.7677
738 3 1.6 24 4.8 -11.2394
739 1 3.2 22.4 3.2 -11.7964
740 3 4.8 24 4.8 -11.2764
741 1 6.4 22.4 3.2 -11.8436
742 3 8 24 4.8 -11.2359
743 4 9.6 22.4 3.2 -13.381
744 3 11.2 24 4.8 -11.3189
745 4 12.8 22.4 3.2 -13.3757
746 4 14.4 24 4.8 -13.3727
747 4 16 22.4 3.2 -13.2902
748 2 17.6 24 4.8 -9.82719
749 2 19.2 22.4 3.2 -9.81722
750 4 20.8 24 4.8 -13.2499
751 2 22.4 22.4 3.2 -9.81928
752 4 24 24 4.8 -13.2813
753 2 25.6 22.4 3.2 -9.81798
754 2 27.2 24 4.8 -9.84524
755 4 28.8 22.4 3.2 -13.2831
756 2 30.4 24 4.8 -9.76253
757 1 32 22.4 3.2 -11.711
758 3 33.6 24 4.8 -11.2018
759 1 35.2 22.4 3.2 -11.8136
760 3 36.8 24 4.8 -11.2013
761 1 38.4 22.4 3.2 -11.8253
762 3 40 24 4.8 -11.1618
763 1 41.6 22.4 3.2 -11.8313
764 3 43.2 24 4.8 -11.2411
765 1 44.8 22.4 3.2 -11.7058
766 2 46.4 24 4.8 -9.77517
767 1 48 22.4 3.2 -11.7415
768 3 49.6 24 4.8 -11.2402
769 1 0 25.6 3.2 -11.8416
771 1 3.2 25.6 3.2 -11.8416
773 1 6.4 25.6 3.2 -11.8416
775 1 9.6 25.6 3.2 -11.8693
777 4 12.8 25.6 3.2 -13.3538
779 4 16 25.6 3.2 -13.3222
781 2 19.2 25.6 3.2 -9.79015
783 2 22.4 25.6 3.2 -9.79279
785 4 25.6 25.6 3.2 -13.3154
787 2 28.8 25.6 3.2 -9.80198
789 1 32 25.6 3.2 -11.7476
791 1 35.2 25.6 3.2 -11.7524
793 1 38.4 25.6 3.2 -11.7846
795 1 41.6 25.6 3.2 -11.8166
797 1 44.8 25.6 3.2 -11.7983
799 1 48 25.6 3.2 -11.8121
770 3 1.6 27.2 4.8 -11.2417
801 1 0 28.8 3.2 -11.8416
772 3 4.8 27.2 4.8 -11.2417
803 1 3.2 28.8 3.2 -11.8417
774 3 8 27.2 4.8 -11.2761
805 1 6.4 28.8 3.2 -11.8416
776 3 11.2 27.2 4.8 -11.3373
807 1 9.6 28.8 3.2 -11.8556
778 3 14.4 27.2 4.8 -11.217
809 1 12.8 28.8 3.2 -11.8589
780 4 17.6 27.2 4.8 -13.287
811 4 16 28.8 3.2 -13.2699
782 4 20.8 27.2 4.8 -13.2042
813 1 19.2 28.8 3.2 -11.6592
784 2 24 27.2 4.8 -9.79065
815 1 22.4 28.8 3.2 -11.656
817 1 25.6 28.8 3.2 -11.7554
786 3 27.2 27.2 4.8 -11.225
819 1 28.8 28.8 3.2 -11.7581
788 2 30.4 27.2 4.8 -9.74967
821 1 32 28.8 3.2 -11.7098
790 3 33.6 27.2 4.8 -11.1254
823 1 35.2 28.8 3.2 -11.6859
792 2 36.8 27.2 4.8 -9.75135
825 4 38.4 28.8 3.2 -13.2294
794 2 40 27.2 4.8 -9.81134
827 4 41.6 28.8 3.2 -13.3364
796 3 43.2 27.2 4.8 -11.2332
829 1 44.8 28.8 3.2 -11.7979
798 3 46.4 27.2 4.8 -11.24
831 1 48 28.8 3.2 -11.8417
800 3 49.6 27.2 4.8 -11.2036
802 3 1.6 30.4 4.8 -11.2756
833 1 0 32 3.2 -11.8558
804 3 4.8 30.4 4.8 -11.2036
835 1 3.2 32 3.2 -11.8416
806 3 8 30.4 4.8 -11.2402
837 1 6.4 32 3.2 -11.8123
808 3 11.2 30.4 4.8 -11.2387
839 1 9.6 32 3.2 -11.7704
810 3 14.4 30.4 4.8 -11.3094
841 1 12.8 32 3.2 -11.8111
812 3 17.6 30.4 4.8 -11.1847
843 4 16 32 3.2 -13.3534
814 2 20.8 30.4 4.8 -9.7511
845 4 19.2 32 3.2 -13.295
816 2 24 30.4 4.8 -9.75105
847 1 22.4 32 3.2 -11.7546
849 1 25.6 32 3.2 -11.8148
818 3 27.2 30.4 4.8 -11.2747
851 1 28.8 32 3.2 -11.7958
820 3 30.4 30.4 4.8 -11.0821
853 1 32 32 3.2 -11.7162
822 2 33.6 30.4 4.8 -9.71967
855 4 35.2 32 3.2 -13.1923
824 2 36.8 30.4 4.8 -9.77517
857 2 38.4 32 3.2 -9.84273
826 2 40 30.4 4.8 -9.85854
859 2 41.6 32 3.2 -9.81829
828 3 43.2 30.4 4.8 -11.3331
861 1 44.8 32 3.2 -11.8312
830 3 46.4 30.4 4.8 -11.2417
863 1 48 32 3.2 -11.8415
832 3 49.6 30.4 4.8 -11.2756
834 3 1.6 33.6 4.8 -11.2753
865 1 0 35.2 3.2 -11.8414
836 3 4.8 33.6 4.8 -11.2423
867 1 3.2 35.2 3.2 -11.8416
838 3 8 33.6 4.8 -11.1636
869 1 6.4 35.2 3.2 -11.8415
840 2 11.2 33.6 4.8 -9.7582
871 4 9.6 35.2 3.2 -13.2433
842 3 14.4 33.6 4.8 -11.2583
873 4 12.8 35.2 3.2 -13.2648
844 2 17.6 33.6 4.8 -9.89508
875 4 16 35.2 3.2 -13.3521
846 3 20.8 33.6 4.8 -11.3276
877 4 19.2 35.2 3.2 -13.3698
848 3 24 33.6 4.8 -11.2608
879 4 22.4 35.2 3.2 -13.4022
881 4 25.6 35.2 3.2 -13.3548
850 3 27.2 33.6 4.8 -11.2978
883 4 28.8 35.2 3.2 -13.2945
852 3 30.4 33.6 4.8 -11.2271
885 4 32 35.2 3.2 -13.2253
854 2 33.6 33.6 4.8 -9.79009
887 2 35.2 35.2 3.2 -9.87007
856 4 36.8 33.6 4.8 -13.3695
889 3 38.4 35.2 3.2 -11.2798
858 4 40 33.6 4.8 -13.4072
891 4 41.6 35.2 3.2 -13.3264
860 3 43.2 33.6 4.8 -11.2958
893 1 44.8 35.2 3.2 -11.7587
862 3 46.4 33.6 4.8 -11.2423
895 1 48 35.2 3.2 -11.8281
864 3 49.6 33.6 4.8 -11.2756
866 3 1.6 36.8 4.8 -11.2417
897 1 0 38.4 3.2 -11.8434
868 3 4.8 36.8 4.8 -11.3379
899 1 3.2 38.4 3.2 -11.8435
870 3 8 36.8 4.8 -11.2905
901 4 6.4 38.4 3.2 -13.3538
872 4 11.2 36.8 4.8 -13.2218
903 4 9.6 38.4 3.2 -13.2454
874 4 14.4 36.8 4.8 -13.2897
905 4 12.8 38.4 3.2 -13.1035
876 3 17.6 36.8 4.8 -11.2788
907 2 16 38.4 3.2 -9.81221
878 2 20.8 36.8 4.8 -9.90266
909 2 19.2 38.4 3.2 -9.92739
880 2 24 36.8 4.8 -9.80911
911 2 22.4 38.4 3.2 -9.85936
913 2 25.6 38.4 3.2 -9.78343
882 4 27.2 36.8 4.8 -13.2883
915 2 28.8 38.4 3.2 -9.81955
884 4 30.4 36.8 4.8 -13.2892
917 2 32 38.4 3.2 -9.78971
886 4 33.6 36.8 4.8 -13.3156
919 3 35.2 38.4 3.2 -11.1837
888 4 36.8 36.8 4.8 -13.3127
921 2 38.4 38.4 3.2 -9.78784
890 4 40 36.8 4.8 -13.2484
923 2 41.6 38.4 3.2 -9.79102
892 2 43.2 36.8 4.8 -9.8184
925 4 44.8 38.4 3.2 -13.2665
894 3 46.4 36.8 4.8 -11.1995
927 4 48 38.4 3.2 -13.3033
896 3 49.6 36.8 4.8 -11.2384
898 3 1.6 40 4.8 -11.307
929 1 0 41.6 3.2 -11.7644
900 3 4.8 40 4.8 -11.2531
931 4 3.2 41.6 3.2 -13.2749
902 4 8 40 4.8 -13.3288
933 4 6.4 41.6 3.2 -13.1445
904 1 11.2 40 4.8 -11.6703
935 2 9.6 41.6 3.2 -9.76544
906 1 14.4 40 4.8 -11.6926
937 3 12.8 41.6 3.2 -11.1173
908 4 17.6 40 4.8 -13.4083
939 3 16 41.6 3.2 -11.2318
910 4 20.8 40 4.8 -13.3213
941 2 19.2 41.6 3.2 -9.8437
912 1 24 40 4.8 -11.7231
943 3 22.4 41.6 3.2 -11.156
945 3 25.6 41.6 3.2 -11.2026
914 1 27.2 40 4.8 -11.7258
947 3 28.8 41.6 3.2 -11.2387
916 4 30.4 40 4.8 -13.2738
949 2 32 41.6 3.2 -9.7522
918 4 33.6 40 4.8 -13.3259
951 2 35.2 41.6 3.2 -9.75361
920 1 36.8 40 4.8 -11.7416
953 3 38.4 41.6 3.2 -11.1995
922 1 40 40 4.8 -11.7425
955 3 41.6 41.6 3.2 -11.2719
924 4 43.2 40 4.8 -13.2389
957 2 44.8 41.6 3.2 -9.79192
926 2 46.4 40 4.8 -9.79212
959 4 48 41.6 3.2 -13.2591
928 3 49.6 40 4.8 -11.2673
930 2 1.6 43.2 4.8 -9.86016
961 2 0 44.8 3.2 -9.76117
932 4 4.8 43.2 4.8 -13.2902
963 3 3.2 44.8 3.2 -11.2533
934 4 8 43.2 4.8 -13.2348
965 2 6.4 44.8 3.2 -9.73005
936 1 11.2 43.2 4.8 -11.8045
967 3 9.6 44.8 3.2 -11.161
938 1 14.4 43.2 4.8 -11.7996
969 2 12.8 44.8 3.2 -9.76912
940 1 17.6 43.2 4.8 -11.8132
971 3 16 44.8 3.2 -11.2361
942 1 20.8 43.2 4.8 -11.7743
973 2 19.2 44.8 3.2 -9.72188
944 1 24 43.2 4.8 -11.7405
975 2 22.4 44.8 3.2 -9.77753
977 3 25.6 44.8 3.2 -11.2023
946 1 27.2 43.2 4.8 -11.7505
979 3 28.8 44.8 3.2 -11.1648
948 1 30.4 43.2 4.8 -11.7565
981 3 32 44.8 3.2 -11.1228
950 4 33.6 43.2 4.8 -13.2414
983 2 35.2 44.8 3.2 -9.69043
952 1 36.8 43.2 4.8 -11.7598
985 2 38.4 44.8 3.2 -9.77721
954 1 40 43.2 4.8 -11.8409
987 3 41.6 44.8 3.2 -11.2736
956 1 43.2 43.2 4.8 -11.8151
989 3 44.8 44.8 3.2 -11.2983
958 4 46.4 43.2 4.8 -13.3207
991 2 48 44.8 3.2 -9.79428
960 2 49.6 43.2 4.8 -9.81448
962 1 1.6 46.4 4.8 -11.7583
993 4 0 48 3.2 -13.1328
964 4 4.8 46.4 4.8 -13.3242
995 3 3.2 48 3.2 -11.2336
966 1 8 46.4 4.8 -11.8013
997 2 6.4 48 3.2 -9.74664
968 1 11.2 46.4 4.8 -11.8392
999 3 9.6 48 3.2 -11.2387
970 1 14.4 46.4 4.8 -11.812
1001 3 12.8 48 3.2 -11.2376
972 1 17.6 46.4 4.8 -11.7985
1003 3 16 48 3.2 -11.2729
974 1 20.8 46.4 4.8 -11.7805
1005 2 19.2 48 3.2 -9.80718
976 4 24 46.4 4.8 -13.3147
1007 3 22.4 48 3.2 -11.2358
1009 3 25.6 48 3.2 -11.2381
978 1 27.2 46.4 4.8 -11.7679
1011 2 28.8 48 3.2 -9.74244
980 1 30.4 46.4 4.8 -11.7394
1013 2 32 48 3.2 -9.71416
982 1 33.6 46.4 4.8 -11.7599
1015 3 35.2 48 3.2 -11.1648
984 1 36.8 46.4 4.8 -11.7655
1017 3 38.4 48 3.2 -11.2733
986 4 40 46.4 4.8 -13.3339
1019 3 41.6 48 3.2 -11.2695
988 1 43.2 46.4 4.8 -11.8146
1021 2 44.8 48 3.2 -9.74939
990 4 46.4 46.4 4.8 -13.2533
1023 4 48 48 3.2 -13.1818
992 4 49.6 46.4 4.8 -13.2469
994 4 1.6 49.6 4.8 -13.3371
996 1 4.8 49.6 4.8 -11.8415
998 1 8 49.6 4.8 -11.8395
1000 4 11.2 49.6 4.8 -13.3645
1002 1 14.4 49.6 4.8 -11.8555
1004 1 17.6 49.6 4.8 -11.8173
1006 4 20.8 49.6 4.8 -13.3137
1008 1 24 49.6 4.8 -11.8977
1010 1 27.2 49.6 4.8 -11.7896
1012 4 30.4 49.6 4.8 -13.2203
1014 1 33.6 49.6 4.8 -11.8019
1016 1 36.8 49.6 4.8 -11.8412
1018 1 40 49.6 4.8 -11.8577
1020 1 43.2 49.6 4.8 -11.7672
1022 1 46.4 49.6 4.8 -11.7508
1024 3 49.6 49.6 4.8 -11.1565
1025 3 0 0 6.4 -11.2619
1026 4 1.6 1.6 8 -13.2847
1027 3 3.2 0 6.4 -11.2371
1028 1 4.8 1.6 8 -11.7702
1029 3 6.4 0 6.4 -11.2395
1030 1 8 1.6 8 -11.7674
1031 3 9.6 0 6.4 -11.2366
1032 1 11.2 1.6 8 -11.7266
1033 3 12.8 0 6.4 -11.2357
1034 4 14.4 1.6 8 -13.298
1035 3 16 0 6.4 -11.2722
1036 4 17.6 1.6 8 -13.3229
1037 2 19.2 0 6.4 -9.77721
1038 1 20.8 1.6 8 -11.7785
1039 3 22.4 0 6.4 -11.3001
1040 4 24 1.6 8 -13.3494
1041 3 25.6 0 6.4 -11.2605
1042 4 27.2 1.6 8 -13.2845
1043 4 28.8 0 6.4 -13.2348
1044 1 30.4 1.6 8 -11.7416
1045 2 32 0 6.4 -9.78404
1046 1 33.6 1.6 8 -11.7991
1047 3 35.2 0 6.4 -11.2756
1048 1 36.8 1.6 8 -11.7864
1049 3 38.4 0 6.4 -11.2408
1050 1 40 1.6 8 -11.7425
1051 3 41.6 0 6.4 -11.2359
1052 4 43.2 1.6 8 -13.305
1053 3 44.8 0 6.4 -11.2658
1054 4 46.4 1.6 8 -13.3046
1055 2 48 0 6.4 -9.84572
1056 1 49.6 1.6 8 -11.7998
1057 3 0 3.2 6.4 -11.2007
1058 1 1.6 4.8 8 -11.8282
1059 2 3.2 3.2 6.4 -9.74088
1060 1 4.8 4.8 8 -11.7808
1061 2 6.4 3.2 6.4 -9.7066
1062 1 8 4.8 8 -11.826
1063 3 9.6 3.2 6.4 -11.1658
1064 1 11.2 4.8 8 -11.7361
1065 2 12.8 3.2 6.4 -9.74254
1066 1 14.4 4.8 8 -11.7682
1067 3 16 3.2 6.4 -11.2307
1068 4 17.6 4.8 8 -13.3167
1069 3 19.2 3.2 6.4 -11.2312
1070 4 20.8 4.8 8 -13.2316
1071 2 22.4 3.2 6.4 -9.80866
1072 1 24 4.8 8 -11.7692
1073 3 25.6 3.2 6.4 -11.2699
1074 1 27.2 4.8 8 -11.7613
1075 3 28.8 3.2 6.4 -11.1638
1076 1 30.4 4.8 8 -11.7235
1077 3 32 3.2 6.4 -11.2018
1078 1 33.6 4.8 8 -11.752
1079 3 35.2 3.2 6.4 -11.2698
1080 4 36.8 4.8 8 -13.2703
1081 3 38.4 3.2 6.4 -11.1602
1082 1 40 4.8 8 -11.7171
1083 3 41.6 3.2 6.4 -11.2416
1084 1 43.2 4.8 8 -11.7243
1085 3 44.8 3.2 6.4 -11.2377
1086 1 46.4 4.8 8 -11.783
1087 3 48 3.2 6.4 -11.2403
1088 1 49.6 4.8 8 -11.8413
1089 3 0 6.4 6.4 -11.2761
1090 1 1.6 8 8 -11.8694
1091 3 3.2 6.4 6.4 -11.2378
1092 1 4.8 8 8 -11.8555
1093 3 6.4 6.4 6.4 -11.2039
1094 1 8 8 8 -11.8412
1095 3 9.6 6.4 6.4 -11.2429
1096 1 11.2 8 8 -11.769
1097 3 12.8 6.4 6.4 -11.1629
1098 4 14.4 8 8 -13.2713
1099 3 16 6.4 6.4 -11.2671
1100 4 17.6 8 8 -13.3418
1101 3 19.2 6.4 6.4 -11.3333
1102 4 20.8 8 8 -13.3202