ITEM: TIMESTEP
0
ITEM: NUMBER OF ATOMS
8192
ITEM: BOX BOUNDS pp pp pp
0.0000000000000000e+00 5.1200000000000003e+01
0.0000000000000000e+00 5.1200000000000003e+01
0.0000000000000000e+00 5.1200000000000003e+01
ITEM: ATOMS id type x y z c_eng
1 2 0 0 0 -9.77387
2 1 1.6 1.6 1.6 -11.7851
3 3 3.2 0 0 -11.2026
4 1 4.8 1.6 1.6 -11.7978
5 3 6.4 0 0 -11.24
6 1 8 1.6 1.6 -11.8134
7 3 9.6 0 0 -11.2381
8 1 11.2 1.6 1.6 -11.8121
9 3 12.8 0 0 -11.2423
10 1 14.4 1.6 1.6 -11.8417
11 3 16 0 0 -11.2033
12 1 17.6 1.6 1.6 -11.8414
13 3 19.2 0 0 -11.242
14 1 20.8 1.6 1.6 -11.8415
15 3 22.4 0 0 -11.2417
16 1 24 1.6 1.6 -11.8123
17 3 25.6 0 0 -11.2033
18 1 27.2 1.6 1.6 -11.7845
19 3 28.8 0 0 -11.242
20 1 30.4 1.6 1.6 -11.8123
21 3 32 0 0 -11.2417
22 1 33.6 1.6 1.6 -11.8417
23 3 35.2 0 0 -11.2417
24 1 36.8 1.6 1.6 -11.8282
25 3 38.4 0 0 -11.3089
26 4 40 1.6 1.6 -13.3399
27 3 41.6 0 0 -11.3091
28 1 43.2 1.6 1.6 -11.8702
29 3 44.8 0 0 -11.2753
30 4 46.4 1.6 1.6 -13.3656
31 3 48 0 0 -11.2724
32 1 49.6 1.6 1.6 -11.7937
33 3 0 3.2 0 -11.1983
34 4 1.6 4.8 1.6 -13.3122
35 2 3.2 3.2 0 -9.7753
36 1 4.8 4.8 1.6 -11.8415
37 3 6.4 3.2 0 -11.1655
38 1 8 4.8 1.6 -11.8258
39 2 9.6 3.2 0 -9.735
40 1 11.2 4.8 1.6 -11.8123
41 3 12.8 3.2 0 -11.2033
42 1 14.4 4.8 1.6 -11.8414
43 3 16 3.2 0 -11.2756
44 1 17.6 4.8 1.6 -11.8422
45 3 19.2 3.2 0 -11.2391
46 1 20.8 4.8 1.6 -11.8259
47 3 22.4 3.2 0 -11.2417
48 1 24 4.8 1.6 -11.8415
49 3 25.6 3.2 0 -11.2758
50 1 27.2 4.8 1.6 -11.8262
51 3 28.8 3.2 0 -11.2376
52 1 30.4 4.8 1.6 -11.8122
53 3 32 3.2 0 -11.2417
54 1 33.6 4.8 1.6 -11.8415
55 3 35.2 3.2 0 -11.242
56 1 36.8 4.8 1.6 -11.8149
57 3 38.4 3.2 0 -11.2005
58 1 40 4.8 1.6 -11.7384
59 3 41.6 3.2 0 -11.2359
60 1 43.2 4.8 1.6 -11.7657
61 3 44.8 3.2 0 -11.3087
62 1 46.4 4.8 1.6 -11.8257
63 3 48 3.2 0 -11.3087
64 1 49.6 4.8 1.6 -11.8319
65 4 0 6.4 0 -13.3133
66 4 1.6 8 1.6 -13.3598
67 3 3.2 6.4 0 -11.1987
68 1 4.8 8 1.6 -11.7934
69 3 6.4 6.4 0 -11.2045
70 1 8 8 1.6 -11.7849
71 3 9.6 6.4 0 -11.1658
72 1 11.2 8 1.6 -11.7979
73 3 12.8 6.4 0 -11.2402
74 1 14.4 8 1.6 -11.8312
75 3 16 6.4 0 -11.2687
76 1 17.6 8 1.6 -11.8167
77 2 19.2 6.4 0 -9.79991
78 1 20.8 8 1.6 -11.812
79 3 22.4 6.4 0 -11.2036
80 1 24 8 1.6 -11.8123
81 3 25.6 6.4 0 -11.2376
82 1 27.2 8 1.6 -11.7844
83 3 28.8 6.4 0 -11.2764
84 1 30.4 8 1.6 -11.8282
85 3 32 6.4 0 -11.2417
86 1 33.6 8 1.6 -11.8693
87 3 35.2 6.4 0 -11.2724
88 4 36.8 8 1.6 -13.3983
89 2 38.4 6.4 0 -9.77216
90 1 40 8 1.6 -11.7802
91 2 41.6 6.4 0 -9.6837
92 1 43.2 8 1.6 -11.7404
93 3 44.8 6.4 0 -11.1598
94 1 46.4 8 1.6 -11.7819
95 3 48 6.4 0 -11.2721
96 4 49.6 8 1.6 -13.3298
97 3 0 9.6 0 -11.2942
98 4 1.6 11.2 1.6 -13.3143
99 3 3.2 9.6 0 -11.2278
100 1 4.8 11.2 1.6 -11.68
101 2 6.4 9.6 0 -9.75121
102 4 8 11.2 1.6 -13.2541
103 2 9.6 9.6 0 -9.75455
104 4 11.2 11.2 1.6 -13.351
105 2 12.8 9.6 0 -9.81448
106 2 14.4 11.2 1.6 -9.78805
107 2 16 9.6 0 -9.8698
108 4 17.6 11.2 1.6 -13.3339
109 3 19.2 9.6 0 -11.2324
110 1 20.8 11.2 1.6 -11.859
111 3 22.4 9.6 0 -11.24
112 1 24 11.2 1.6 -11.7985
113 2 25.6 9.6 0 -9.7422
114 1 27.2 11.2 1.6 -11.7527
115 3 28.8 9.6 0 -11.1245
116 1 30.4 11.2 1.6 -11.798
117 3 32 9.6 0 -11.2005
118 4 33.6 11.2 1.6 -13.3555
119 3 35.2 9.6 0 -11.3685
120 4 36.8 11.2 1.6 -13.3396
121 3 38.4 9.6 0 -11.2686
122 1 40 11.2 1.6 -11.7912
123 3 41.6 9.6 0 -11.2018
124 1 43.2 11.2 1.6 -11.7724
125 2 44.8 9.6 0 -9.78009
126 4 46.4 11.2 1.6 -13.237
127 3 48 9.6 0 -11.261
128 4 49.6 11.2 1.6 -13.2872
129 2 0 12.8 0 -9.84259
130 2 1.6 14.4 1.6 -9.81789
131 4 3.2 12.8 0 -13.2516
132 2 4.8 14.4 1.6 -9.76426
133 2 6.4 12.8 0 -9.73732
134 4 8 14.4 1.6 -13.2479
135 2 9.6 12.8 0 -9.84363
136 2 11.2 14.4 1.6 -9.83777
137 4 12.8 12.8 0 -13.28
138 4 14.4 14.4 1.6 -13.2819
139 4 16 12.8 0 -13.2457
140 4 17.6 14.4 1.6 -13.3076
141 3 19.2 12.8 0 -11.298
142 4 20.8 14.4 1.6 -13.3492
143 3 22.4 12.8 0 -11.3016
144 1 24 14.4 1.6 -11.7097
145 2 25.6 12.8 0 -9.75385
146 1 27.2 14.4 1.6 -11.7311
147 3 28.8 12.8 0 -11.1998
148 1 30.4 14.4 1.6 -11.7302
149 2 32 12.8 0 -9.78257
150 1 33.6 14.4 1.6 -11.7301
151 3 35.2 12.8 0 -11.2618
152 4 36.8 14.4 1.6 -13.2985
153 2 38.4 12.8 0 -9.81897
154 2 40 14.4 1.6 -9.75872
155 3 41.6 12.8 0 -11.1918
156 1 43.2 14.4 1.6 -11.672
157 2 44.8 12.8 0 -9.75738
158 4 46.4 14.4 1.6 -13.2604
159 2 48 12.8 0 -9.79399
160 2 49.6 14.4 1.6 -9.86418
161 4 0 16 0 -13.2844
162 2 1.6 17.6 1.6 -9.80895
163 4 3.2 16 0 -13.2908
164 3 4.8 17.6 1.6 -11.2985
165 4 6.4 16 0 -13.2253
166 2 8 17.6 1.6 -9.81833
167 1 9.6 16 0 -11.7388
168 2 11.2 17.6 1.6 -9.87081
169 4 12.8 16 0 -13.3232
170 2 14.4 17.6 1.6 -9.8364
171 4 16 16 0 -13.2867
172 4 17.6 17.6 1.6 -13.3755
173 3 19.2 16 0 -11.2873
174 4 20.8 17.6 1.6 -13.2576
175 2 22.4 16 0 -9.79261
176 4 24 17.6 1.6 -13.2224
177 4 25.6 16 0 -13.2287
178 2 27.2 17.6 1.6 -9.8387
179 2 28.8 16 0 -9.81373
180 2 30.4 17.6 1.6 -9.81469
181 4 32 16 0 -13.2071
182 4 33.6 17.6 1.6 -13.2252
183 2 35.2 16 0 -9.82888
184 3 36.8 17.6 1.6 -11.2604
185 4 38.4 16 0 -13.2939
186 3 40 17.6 1.6 -11.2682
187 4 41.6 16 0 -13.2986
188 3 43.2 17.6 1.6 -11.2274
189 2 44.8 16 0 -9.72077
190 3 46.4 17.6 1.6 -11.2915
191 2 48 16 0 -9.82313
192 3 49.6 17.6 1.6 -11.3266
193 1 0 19.2 0 -11.7389
194 3 1.6 20.8 1.6 -11.2022
195 1 3.2 19.2 0 -11.7981
196 3 4.8 20.8 1.6 -11.2761
197 1 6.4 19.2 0 -11.8308
198 3 8 20.8 1.6 -11.2321
199 4 9.6 19.2 0 -13.3007
200 2 11.2 20.8 1.6 -9.78487
201 4 12.8 19.2 0 -13.3198
202 4 14.4 20.8 1.6 -13.2379
203 4 16 19.2 0 -13.2942
204 3 17.6 20.8 1.6 -11.2804
205 4 19.2 19.2 0 -13.3294
206 3 20.8 20.8 1.6 -11.2209
207 4 22.4 19.2 0 -13.2841
208 3 24 20.8 1.6 -11.2634
209 2 25.6 19.2 0 -9.83512
210 3 27.2 20.8 1.6 -11.3612
211 4 28.8 19.2 0 -13.4004
212 3 30.4 20.8 1.6 -11.2977
213 1 32 19.2 0 -11.7555
214 3 33.6 20.8 1.6 -11.2626
215 1 35.2 19.2 0 -11.7735
216 2 36.8 20.8 1.6 -9.8
217 1 38.4 19.2 0 -11.8013
218 3 40 20.8 1.6 -11.163
219 4 41.6 19.2 0 -13.243
220 2 43.2 20.8 1.6 -9.75178
221 1 44.8 19.2 0 -11.6988
222 3 46.4 20.8 1.6 -11.1955
223 1 48 19.2 0 -11.7518
224 3 49.6 20.8 1.6 -11.271
225 1 0 22.4 0 -11.7696
226 2 1.6 24 1.6 -9.77529
227 1 3.2 22.4 0 -11.7854
228 3 4.8 24 1.6 -11.2001
229 1 6.4 22.4 0 -11.8119
230 3 8 24 1.6 -11.2773
231 1 9.6 22.4 0 -11.8151
232 3 11.2 24 1.6 -11.1636
233 1 12.8 22.4 0 -11.7369
234 3 14.4 24 1.6 -11.1602
235 1 16 22.4 0 -11.7891
236 3 17.6 24 1.6 -11.2675
237 1 19.2 22.4 0 -11.8158
238 2 20.8 24 1.6 -9.81057
239 4 22.4 22.4 0 -13.3275
240 3 24 24 1.6 -11.2349
241 1 25.6 22.4 0 -11.8568
242 3 27.2 24 1.6 -11.2751
243 1 28.8 22.4 0 -11.871
244 2 30.4 24 1.6 -9.80712
245 1 32 22.4 0 -11.8274
246 3 33.6 24 1.6 -11.2714
247 1 35.2 22.4 0 -11.8281
248 3 36.8 24 1.6 -11.2394
249 1 38.4 22.4 0 -11.7841
250 3 40 24 1.6 -11.2767
251 1 41.6 22.4 0 -11.7832
252 3 43.2 24 1.6 -11.2734
253 1 44.8 22.4 0 -11.7537
254 3 46.4 24 1.6 -11.2705
255 1 48 22.4 0 -11.8171
256 3 49.6 24 1.6 -11.2384
257 1 0 25.6 0 -11.7986
259 4 3.2 25.6 0 -13.282
261 1 6.4 25.6 0 -11.8419
263 1 9.6 25.6 0 -11.7807
265 1 12.8 25.6 0 -11.7703
267 1 16 25.6 0 -11.8137
269 4 19.2 25.6 0 -13.2788
271 4 22.4 25.6 0 -13.3238
273 1 25.6 25.6 0 -11.8575
275 4 28.8 25.6 0 -13.281
277 1 32 25.6 0 -11.7854
279 1 35.2 25.6 0 -11.8413
281 1 38.4 25.6 0 -11.8438
283 4 41.6 25.6 0 -13.359
285 1 44.8 25.6 0 -11.8167
287 1 48 25.6 0 -11.8278
258 3 1.6 27.2 1.6 -11.2002
289 1 0 28.8 0 -11.8415
260 3 4.8 27.2 1.6 -11.3099
291 1 3.2 28.8 0 -11.8697
262 3 8 27.2 1.6 -11.2756
293 4 6.4 28.8 0 -13.3845
264 3 11.2 27.2 1.6 -11.1645
295 1 9.6 28.8 0 -11.826
266 2 14.4 27.2 1.6 -9.74811
297 1 12.8 28.8 0 -11.7843
268 2 17.6 27.2 1.6 -9.75545
299 1 16 28.8 0 -11.8115
270 2 20.8 27.2 1.6 -9.72465
301 1 19.2 28.8 0 -11.7848
272 3 24 27.2 1.6 -11.237
303 1 22.4 28.8 0 -11.7626
305 4 25.6 28.8 0 -13.3285
274 3 27.2 27.2 1.6 -11.2738
307 1 28.8 28.8 0 -11.8116
276 2 30.4 27.2 1.6 -9.7138
309 1 32 28.8 0 -11.7223
278 3 33.6 27.2 1.6 -11.2013
311 1 35.2 28.8 0 -11.8094
280 3 36.8 27.2 1.6 -11.2744
313 4 38.4 28.8 0 -13.3057
282 3 40 27.2 1.6 -11.2307
315 4 41.6 28.8 0 -13.3177
284 3 43.2 27.2 1.6 -11.23
317 1 44.8 28.8 0 -11.7735
286 3 46.4 27.2 1.6 -11.2767
319 1 48 28.8 0 -11.8414
288 3 49.6 27.2 1.6 -11.242
290 3 1.6 30.4 1.6 -11.2761
321 1 0 32 0 -11.8558
292 3 4.8 30.4 1.6 -11.2323
323 1 3.2 32 0 -11.8281
294 3 8 30.4 1.6 -11.3073
325 4 6.4 32 0 -13.3591
296 3 11.2 30.4 1.6 -11.2426
327 1 9.6 32 0 -11.8556
298 3 14.4 30.4 1.6 -11.1999
329 1 12.8 32 0 -11.8151
300 3 17.6 30.4 1.6 -11.2744
331 4 16 32 0 -13.337
302 3 20.8 30.4 1.6 -11.1995
333 1 19.2 32 0 -11.8694
304 2 24 30.4 1.6 -9.81923
335 1 22.4 32 0 -11.8018
337 4 25.6 32 0 -13.3225
306 3 27.2 30.4 1.6 -11.3065
339 1 28.8 32 0 -11.813
308 3 30.4 30.4 1.6 -11.1651
341 1 32 32 0 -11.7428
310 2 33.6 30.4 1.6 -9.71831
343 1 35.2 32 0 -11.6997
312 3 36.8 30.4 1.6 -11.2598
345 4 38.4 32 0 -13.3534
314 4 40 30.4 1.6 -13.2913
347 2 41.6 32 0 -9.80692
316 4 43.2 30.4 1.6 -13.2171
349 4 44.8 32 0 -13.2972
318 3 46.4 30.4 1.6 -11.2013
351 1 48 32 0 -11.7983
320 3 49.6 30.4 1.6 -11.2756
322 3 1.6 33.6 1.6 -11.2381
353 1 0 35.2 0 -11.812
324 2 4.8 33.6 1.6 -9.74077
355 1 3.2 35.2 0 -11.8259
326 3 8 33.6 1.6 -11.2397
357 1 6.4 35.2 0 -11.8422
328 3 11.2 33.6 1.6 -11.1998
359 1 9.6 35.2 0 -11.8278
330 4 14.4 33.6 1.6 -13.2696
361 4 12.8 35.2 0 -13.3601
332 3 17.6 33.6 1.6 -11.2321
363 4 16 35.2 0 -13.3869
334 3 20.8 33.6 1.6 -11.2742
365 4 19.2 35.2 0 -13.3337
336 3 24 33.6 1.6 -11.2645
367 1 22.4 35.2 0 -11.7437
369 1 25.6 35.2 0 -11.7268
338 3 27.2 33.6 1.6 -11.2979
371 4 28.8 35.2 0 -13.3259
340 3 30.4 33.6 1.6 -11.2652
373 2 32 35.2 0 -9.82064
342 2 33.6 33.6 1.6 -9.79035
375 2 35.2 35.2 0 -9.81495
344 2 36.8 33.6 1.6 -9.81443
377 2 38.4 35.2 0 -9.76282
346 4 40 33.6 1.6 -13.3082
379 4 41.6 35.2 0 -13.2743
348 2 43.2 33.6 1.6 -9.84492
381 2 44.8 35.2 0 -9.80874
350 2 46.4 33.6 1.6 -9.78303
383 1 48 35.2 0 -11.7154
352 3 49.6 33.6 1.6 -11.2384
354 3 1.6 36.8 1.6 -11.2744
385 1 0 38.4 0 -11.7702
356 3 4.8 36.8 1.6 -11.2689
387 4 3.2 38.4 0 -13.3584
358 3 8 36.8 1.6 -11.2693
389 4 6.4 38.4 0 -13.3816
360 2 11.2 36.8 1.6 -9.86344
391 1 9.6 38.4 0 -11.7919
362 3 14.4 36.8 1.6 -11.2432
393 4 12.8 38.4 0 -13.3698
364 4 17.6 36.8 1.6 -13.2818
395 4 16 38.4 0 -13.3151
366 2 20.8 36.8 1.6 -9.78941
397 2 19.2 38.4 0 -9.85861
368 2 24 36.8 1.6 -9.78761
399 4 22.4 38.4 0 -13.2549
401 4 25.6 38.4 0 -13.2353
370 2 27.2 36.8 1.6 -9.7913
403 2 28.8 38.4 0 -9.78859
372 4 30.4 36.8 1.6 -13.2891
405 4 32 38.4 0 -13.2553
374 4 33.6 36.8 1.6 -13.2623
407 3 35.2 38.4 0 -11.2991
376 1 36.8 36.8 1.6 -11.7785
409 3 38.4 38.4 0 -11.2737
378 1 40 36.8 1.6 -11.7279
411 3 41.6 38.4 0 -11.229
380 4 43.2 36.8 1.6 -13.3219
413 2 44.8 38.4 0 -9.81867
382 2 46.4 36.8 1.6 -9.78977
415 4 48 38.4 0 -13.2342
384 3 49.6 36.8 1.6 -11.2338
386 3 1.6 40 1.6 -11.2828
417 2 0 41.6 0 -9.83154
388 2 4.8 40 1.6 -9.84104
419 4 3.2 41.6 0 -13.344
390 2 8 40 1.6 -9.79123
421 4 6.4 41.6 0 -13.3378
392 2 11.2 40 1.6 -9.78952
423 4 9.6 41.6 0 -13.3216
394 2 14.4 40 1.6 -9.83867
425 2 12.8 41.6 0 -9.81439
396 4 17.6 40 1.6 -13.3213
427 4 16 41.6 0 -13.2524
398 4 20.8 40 1.6 -13.3252
429 3 19.2 41.6 0 -11.222
400 4 24 40 1.6 -13.3072
431 2 22.4 41.6 0 -9.84222
433 3 25.6 41.6 0 -11.2631
402 1 27.2 40 1.6 -11.7449
435 3 28.8 41.6 0 -11.2373
404 1 30.4 40 1.6 -11.7105
437 2 32 41.6 0 -9.74828
406 1 33.6 40 1.6 -11.752
439 3 35.2 41.6 0 -11.24
408 1 36.8 40 1.6 -11.8553
441 3 38.4 41.6 0 -11.2753
410 4 40 40 1.6 -13.3828
443 3 41.6 41.6 0 -11.2717
412 4 43.2 40 1.6 -13.3717
445 2 44.8 41.6 0 -9.78202
414 4 46.4 40 1.6 -13.3152
447 2 48 41.6 0 -9.79011
416 2 49.6 40 1.6 -9.86291
418 4 1.6 43.2 1.6 -13.3154
449 2 0 44.8 0 -9.87126
420 2 4.8 43.2 1.6 -9.81276
451 4 3.2 44.8 0 -13.3188
422 4 8 43.2 1.6 -13.2857
453 3 6.4 44.8 0 -11.2847
424 4 11.2 43.2 1.6 -13.3281
455 3 9.6 44.8 0 -11.3011
426 1 14.4 43.2 1.6 -11.7319
457 3 12.8 44.8 0 -11.2326
428 1 17.6 43.2 1.6 -11.7825
459 2 16 44.8 0 -9.69254
430 1 20.8 43.2 1.6 -11.8276
461 3 19.2 44.8 0 -11.2394
432 1 24 43.2 1.6 -11.8436
463 3 22.4 44.8 0 -11.2379
465 3 25.6 44.8 0 -11.2734
434 1 27.2 43.2 1.6 -11.8554
467 3 28.8 44.8 0 -11.24
436 1 30.4 43.2 1.6 -11.8257
469 3 32 44.8 0 -11.1645
438 1 33.6 43.2 1.6 -11.7828
471 3 35.2 44.8 0 -11.2042
440 1 36.8 43.2 1.6 -11.8123
473 3 38.4 44.8 0 -11.2417
442 1 40 43.2 1.6 -11.8555
475 3 41.6 44.8 0 -11.242
444 1 43.2 43.2 1.6 -11.8433
477 3 44.8 44.8 0 -11.24
446 4 46.4 43.2 1.6 -13.3287
479 3 48 44.8 0 -11.2685
448 4 49.6 43.2 1.6 -13.3114
450 4 1.6 46.4 1.6 -13.3203
481 3 0 48 0 -11.2661
452 4 4.8 46.4 1.6 -13.3038
483 3 3.2 48 0 -11.2359
454 1 8 46.4 1.6 -11.7993
485 3 6.4 48 0 -11.2761
456 1 11.2 46.4 1.6 -11.7846
487 3 9.6 48 0 -11.24
458 1 14.4 46.4 1.6 -11.7225
489 3 12.8 48 0 -11.1645
460 1 17.6 46.4 1.6 -11.7807
491 2 16 48 0 -9.70694
462 1 20.8 46.4 1.6 -11.8557
493 3 19.2 48 0 -11.2005
464 1 24 46.4 1.6 -11.8413
495 3 22.4 48 0 -11.2759
497 3 25.6 48 0 -11.242
466 1 27.2 46.4 1.6 -11.8556
499 3 28.8 48 0 -11.242
468 1 30.4 46.4 1.6 -11.8555
501 3 32 48 0 -11.2039
470 1 33.6 46.4 1.6 -11.8123
503 3 35.2 48 0 -11.2039
472 1 36.8 46.4 1.6 -11.8123
505 3 38.4 48 0 -11.2759
474 1 40 46.4 1.6 -11.8281
507 3 41.6 48 0 -11.2376
476 1 43.2 46.4 1.6 -11.8281
509 3 44.8 48 0 -11.2417
478 1 46.4 46.4 1.6 -11.8436
511 3 48 48 0 -11.3097
480 4 49.6 46.4 1.6 -13.332
482 1 1.6 49.6 1.6 -11.7362
484 1 4.8 49.6 1.6 -11.804
486 4 8 49.6 1.6 -13.3086
488 1 11.2 49.6 1.6 -11.8139
490 1 14.4 49.6 1.6 -11.7844
492 1 17.6 49.6 1.6 -11.826
494 1 20.8 49.6 1.6 -11.8555
496 1 24 49.6 1.6 -11.8282
498 1 27.2 49.6 1.6 -11.8121
500 1 30.4 49.6 1.6 -11.8557
502 1 33.6 49.6 1.6 -11.8416
504 1 36.8 49.6 1.6 -11.8415
506 1 40 49.6 1.6 -11.8396
508 1 43.2 49.6 1.6 -11.812
510 1 46.4 49.6 1.6 -11.8555
512 1 49.6 49.6 1.6 -11.798
513 2 0 0 3.2 -9.71257
514 1 1.6 1.6 4.8 -11.8256
515 3 3.2 0 3.2 -11.197
516 4 4.8 1.6 4.8 -13.3816
517 2 6.4 0 3.2 -9.8632
518 4 8 1.6 4.8 -13.3536
519 3 9.6 0 3.2 -11.2683
520 1 11.2 1.6 4.8 -11.8137
521 3 12.8 0 3.2 -11.24
522 1 14.4 1.6 4.8 -11.8414
523 3 16 0 3.2 -11.2761
524 1 17.6 1.6 4.8 -11.842
525 3 19.2 0 3.2 -11.2727
526 1 20.8 1.6 4.8 -11.829
527 3 22.4 0 3.2 -11.2354
528 1 24 1.6 4.8 -11.8015
529 2 25.6 0 3.2 -9.769
530 1 27.2 1.6 4.8 -11.7675
531 3 28.8 0 3.2 -11.1991
532 1 30.4 1.6 4.8 -11.7847
533 3 32 0 3.2 -11.2397
534 1 33.6 1.6 4.8 -11.828
535 3 35.2 0 3.2 -11.242
536 1 36.8 1.6 4.8 -11.7983
537 3 38.4 0 3.2 -11.24
538 1 40 1.6 4.8 -11.8121
539 3 41.6 0 3.2 -11.2378
540 1 43.2 1.6 4.8 -11.8554
541 3 44.8 0 3.2 -11.2761
542 1 46.4 1.6 4.8 -11.8556
543 3 48 0 3.2 -11.2729
544 1 49.6 1.6 4.8 -11.8281
545 3 0 3.2 3.2 -11.2387
546 1 1.6 4.8 4.8 -11.8693
547 3 3.2 3.2 3.2 -11.3041
548 4 4.8 4.8 4.8 -13.4051
549 3 6.4 3.2 3.2 -11.3011
550 4 8 4.8 4.8 -13.3755
551 3 9.6 3.2 3.2 -11.2358
552 1 11.2 4.8 4.8 -11.7678
553 3 12.8 3.2 3.2 -11.2423
554 1 14.4 4.8 4.8 -11.826
555 3 16 3.2 3.2 -11.2753
556 4 17.6 4.8 4.8 -13.3615
557 3 19.2 3.2 3.2 -11.3076
558 4 20.8 4.8 4.8 -13.3567
559 3 22.4 3.2 3.2 -11.2761
560 1 24 4.8 4.8 -11.8291
561 3 25.6 3.2 3.2 -11.1642
562 1 27.2 4.8 4.8 -11.7393
563 2 28.8 3.2 3.2 -9.70683
564 1 30.4 4.8 4.8 -11.7062
565 3 32 3.2 3.2 -11.2045
566 1 33.6 4.8 4.8 -11.793
567 3 35.2 3.2 3.2 -11.2394
568 4 36.8 4.8 4.8 -13.3492
569 2 38.4 3.2 3.2 -9.7771
570 1 40 4.8 4.8 -11.7719
571 3 41.6 3.2 3.2 -11.201
572 1 43.2 4.8 4.8 -11.7564
573 3 44.8 3.2 3.2 -11.2381
574 1 46.4 4.8 4.8 -11.7983
575 3 48 3.2 3.2 -11.2759
576 1 49.6 4.8 4.8 -11.8555
577 3 0 6.4 3.2 -11.2672
578 1 1.6 8 4.8 -11.8456
579 3 3.2 6.4 3.2 -11.34
580 1 4.8 8 4.8 -11.8436
581 3 6.4 6.4 3.2 -11.3033
582 4 8 8 4.8 -13.3244
583 3 9.6 6.4 3.2 -11.2739
584 1 11.2 8 4.8 -11.7724
585 3 12.8 6.4 3.2 -11.2042
586 1 14.4 8 4.8 -11.7979
587 3 16 6.4 3.2 -11.2764
588 1 17.6 8 4.8 -11.8133
589 3 19.2 6.4 3.2 -11.2353
590 1 20.8 8 4.8 -11.7521
591 3 22.4 6.4 3.2 -11.2402
592 1 24 8 4.8 -11.7588
593 3 25.6 6.4 3.2 -11.2051
594 1 27.2 8 4.8 -11.7287
595 3 28.8 6.4 3.2 -11.1633
596 4 30.4 8 4.8 -13.1854
597 3 32 6.4 3.2 -11.2026
598 1 33.6 8 4.8 -11.7617
599 3 35.2 6.4 3.2 -11.3393
600 4 36.8 8 4.8 -13.3898
601 3 38.4 6.4 3.2 -11.2595
602 4 40 8 4.8 -13.3209
603 2 41.6 6.4 3.2 -9.71819
604 4 43.2 8 4.8 -13.2601
605 2 44.8 6.4 3.2 -9.74711
606 4 46.4 8 4.8 -13.2745
607 3 48 6.4 3.2 -11.2342
608 4 49.6 8 4.8 -13.3009
609 2 0 9.6 3.2 -9.84415
610 4 1.6 11.2 4.8 -13.3193
611 3 3.2 9.6 3.2 -11.2302
612 4 4.8 11.2 4.8 -13.2642
613 2 6.4 9.6 3.2 -9.75655
614 4 8 11.2 4.8 -13.2874
615 3 9.6 9.6 3.2 -11.2976
616 4 11.2 11.2 4.8 -13.265
617 3 12.8 9.6 3.2 -11.233
618 1 14.4 11.2 4.8 -11.7496
619 3 16 9.6 3.2 -11.2722
620 1 17.6 11.2 4.8 -11.8068
621 3 19.2 9.6 3.2 -11.2384
622 4 20.8 11.2 4.8 -13.2546
623 3 22.4 9.6 3.2 -11.2408
624 1 24 11.2 4.8 -11.7751
625 3 25.6 9.6 3.2 -11.1251
626 1 27.2 11.2 4.8 -11.7165
627 2 28.8 9.6 3.2 -9.74265
628 1 30.4 11.2 4.8 -11.7495
629 3 32 9.6 3.2 -11.2699
630 4 33.6 11.2 4.8 -13.3468
631 3 35.2 9.6 3.2 -11.3258
632 4 36.8 11.2 4.8 -13.3179
633 3 38.4 9.6 3.2 -11.3267
634 4 40 11.2 4.8 -13.2904
635 3 41.6 9.6 3.2 -11.2674
636 4 43.2 11.2 4.8 -13.3205
637 3 44.8 9.6 3.2 -11.1842
638 4 46.4 11.2 4.8 -13.2859
639 4 48 9.6 3.2 -13.2438
640 4 49.6 11.2 4.8 -13.2456
641 2 0 12.8 3.2 -9.81597
642 4 1.6 14.4 4.8 -13.3505
643 4 3.2 12.8 3.2 -13.2507
644 2 4.8 14.4 4.8 -9.8534
645 4 6.4 12.8 3.2 -13.2109
646 4 8 14.4 4.8 -13.2864
647 3 9.6 12.8 3.2 -11.2382
648 4 11.2 14.4 4.8 -13.3137
649 4 12.8 12.8 3.2 -13.2833
650 4 14.4 14.4 4.8 -13.2218
651 2 16 12.8 3.2 -9.7961
652 4 17.6 14.4 4.8 -13.322
653 2 19.2 12.8 3.2 -9.86657
654 1 20.8 14.4 4.8 -11.771
655 3 22.4 12.8 3.2 -11.1999
656 1 24 14.4 4.8 -11.7055
657 3 25.6 12.8 3.2 -11.1652
658 4 27.2 14.4 4.8 -13.2421
659 3 28.8 12.8 3.2 -11.1612
660 4 30.4 14.4 4.8 -13.2939
661 3 32 12.8 3.2 -11.2618
662 2 33.6 14.4 4.8 -9.8423
663 2 35.2 12.8 3.2 -9.89435
664 2 36.8 14.4 4.8 -9.81237
665 4 38.4 12.8 3.2 -13.2267
666 2 40 14.4 4.8 -9.76517
667 2 41.6 12.8 3.2 -9.76497
668 4 43.2 14.4 4.8 -13.2558
669 2 44.8 12.8 3.2 -9.78752
670 2 46.4 14.4 4.8 -9.80822
671 4 48 12.8 3.2 -13.2358
672 2 49.6 14.4 4.8 -9.86749
673 4 0 16 3.2 -13.3515
674 3 1.6 17.6 4.8 -11.2283
675 4 3.2 16 3.2 -13.3444
676 3 4.8 17.6 4.8 -11.3494
677 4 6.4 16 3.2 -13.3354
678 2 8 17.6 4.8 -9.84034
679 2 9.6 16 3.2 -9.85817
680 2 11.2 17.6 4.8 -9.87663
681 2 12.8 16 3.2 -9.86473
682 4 14.4 17.6 4.8 -13.3121
683 3 16 16 3.2 -11.2749
684 4 17.6 17.6 4.8 -13.3477
685 3 19.2 16 3.2 -11.3256
686 1 20.8 17.6 4.8 -11.6655
687 2 22.4 16 3.2 -9.6983
688 4 24 17.6 4.8 -13.1505
689 2 25.6 16 3.2 -9.70462
690 4 27.2 17.6 4.8 -13.2806
691 2 28.8 16 3.2 -9.84424
692 2 30.4 17.6 4.8 -9.84355
693 2 32 16 3.2 -9.79362
694 4 33.6 17.6 4.8 -13.2817
695 2 35.2 16 3.2 -9.82865
696 3 36.8 17.6 4.8 -11.19
697 1 38.4 16 3.2 -11.7451
698 2 40 17.6 4.8 -9.7789
699 4 41.6 16 3.2 -13.2725
700 3 43.2 17.6 4.8 -11.2202
701 4 44.8 16 3.2 -13.2962
702 2 46.4 17.6 4.8 -9.84528
703 4 48 16 3.2 -13.3638
704 3 49.6 17.6 4.8 -11.3335
705 1 0 19.2 3.2 -11.8412
706 3 1.6 20.8 4.8 -11.2408
707 1 3.2 19.2 3.2 -11.8286
708 2 4.8 20.8 4.8 -9.75774
709 4 6.4 19.2 3.2 -13.2979
710 4 8 20.8 4.8 -13.2803
711 4 9.6 19.2 3.2 -13.3465
712 2 11.2 20.8 4.8 -9.81524
713 4 12.8 19.2 3.2 -13.2815
714 2 14.4 20.8 4.8 -9.8138
715 2 16 19.2 3.2 -9.88328
716 2 17.6 20.8 4.8 -9.88197
717 2 19.2 19.2 3.2 -9.82456
718 4 20.8 20.8 4.8 -13.2217
719 1 22.4 19.2 3.2 -11.6227
720 2 24 20.8 4.8 -9.75783
721 4 25.6 19.2 3.2 -13.2866
722 2 27.2 20.8 4.8 -9.87009
723 4 28.8 19.2 3.2 -13.339
724 2 30.4 20.8 4.8 -9.86919
725 4 32 19.2 3.2 -13.3183
726 3 33.6 20.8 4.8 -11.2584
727 4 35.2 19.2 3.2 -13.3281
728 3 36.8 20.8 4.8 -11.2737
729 1 38.4 19.2 3.2 -11.7976
730 3 40 20.8 4.8 -11.2023
731 1 41.6 19.2 3.2 -11.7997
732 2 43.2 20.8 4.8 -9.78362
733 1 44.8 19.2 3.2 -11.7585
734 4 46.4 20.8 4.8 -13.1939
735 4 48 19.2 3.2 -13.3231
736 3 49.6 20.8 4.8 -11.2371
737 1 0 22.4 3.2 -11.8423
738 3 1.6 24 4.8 -11.161
739 4 3.2 22.4 3.2 -13.2852
740 2 4.8 24 4.8 -9.7768
741 1 6.4 22.4 3.2 -11.7911
742 3 8 24 4.8 -11.2301
743 4 9.6 22.4 3.2 -13.2807
744 2 11.2 24 4.8 -9.81348
745 1 12.8 22.4 3.2 -11.7204
746 2 14.4 24 4.8 -9.81909
747 4 16 22.4 3.2 -13.3185
748 2 17.6 24 4.8 -9.8694
749 4 19.2 22.4 3.2 -13.3222
750 2 20.8 24 4.8 -9.72813
751 1 22.4 22.4 3.2 -11.7109
752 2 24 24 4.8 -9.75781
753 1 25.6 22.4 3.2 -11.8182
754 3 27.2 24 4.8 -11.2997
755 4 28.8 22.4 3.2 -13.3557
756 3 30.4 24 4.8 -11.3011
757 4 32 22.4 3.2 -13.3783
758 3 33.6 24 4.8 -11.2708
759 4 35.2 22.4 3.2 -13.381
760 3 36.8 24 4.8 -11.2729
761 1 38.4 22.4 3.2 -11.8281
762 3 40 24 4.8 -11.2732
763 1 41.6 22.4 3.2 -11.7982
764 3 43.2 24 4.8 -11.2702
765 4 44.8 22.4 3.2 -13.3035
766 3 46.4 24 4.8 -11.2719
767 4 48 22.4 3.2 -13.3635
768 3 49.6 24 4.8 -11.2764
769 1 0 25.6 3.2 -11.7843
771 1 3.2 25.6 3.2 -11.7903
773 1 6.4 25.6 3.2 -11.8117
775 1 9.6 25.6 3.2 -11.8439
777 1 12.8 25.6 3.2 -11.7387
779 4 16 25.6 3.2 -13.2959
781 1 19.2 25.6 3.2 -11.7181
783 1 22.4 25.6 3.2 -11.7402
785 1 25.6 25.6 3.2 -11.8114
787 1 28.8 25.6 3.2 -11.8273
789 1 32 25.6 3.2 -11.796
791 1 35.2 25.6 3.2 -11.842
793 1 38.4 25.6 3.2 -11.7981
795 1 41.6 25.6 3.2 -11.829
797 1 44.8 25.6 3.2 -11.8418
799 1 48 25.6 3.2 -11.8556
770 2 1.6 27.2 4.8 -9.73533
801 1 0 28.8 3.2 -11.8262
772 3 4.8 27.2 4.8 -11.1236
803 1 3.2 28.8 3.2 -11.7843
774 3 8 27.2 4.8 -11.2764
805 1 6.4 28.8 3.2 -11.826
776 3 11.2 27.2 4.8 -11.2016
807 1 9.6 28.8 3.2 -11.8415
778 2 14.4 27.2 4.8 -9.72839
809 1 12.8 28.8 3.2 -11.7987
780 2 17.6 27.2 4.8 -9.81811
811 4 16 28.8 3.2 -13.2787
782 2 20.8 27.2 4.8 -9.76284
813 1 19.2 28.8 3.2 -11.7426
784 3 24 27.2 4.8 -11.1973
815 4 22.4 28.8 3.2 -13.2484
817 1 25.6 28.8 3.2 -11.7998
786 3 27.2 27.2 4.8 -11.2767
819 1 28.8 28.8 3.2 -11.812
788 3 30.4 27.2 4.8 -11.2387
821 1 32 28.8 3.2 -11.77
790 3 33.6 27.2 4.8 -11.1992
823 4 35.2 28.8 3.2 -13.3063
792 2 36.8 27.2 4.8 -9.7809
825 1 38.4 28.8 3.2 -11.7464
794 2 40 27.2 4.8 -9.78449
827 4 41.6 28.8 3.2 -13.2389
796 2 43.2 27.2 4.8 -9.75742
829 4 44.8 28.8 3.2 -13.2474
798 3 46.4 27.2 4.8 -11.24
831 1 48 28.8 3.2 -11.8557
800 3 49.6 27.2 4.8 -11.2033
802 3 1.6 30.4 4.8 -11.1985
833 4 0 32 3.2 -13.365
804 2 4.8 30.4 4.8 -9.70694
835 1 3.2 32 3.2 -11.7637
806 3 8 30.4 4.8 -11.1645
837 1 6.4 32 3.2 -11.766
808 3 11.2 30.4 4.8 -11.2045
839 1 9.6 32 3.2 -11.8415
810 3 14.4 30.4 4.8 -11.203
841 1 12.8 32 3.2 -11.766
812 3 17.6 30.4 4.8 -11.2706
843 1 16 32 3.2 -11.7958
814 2 20.8 30.4 4.8 -9.81667
845 1 19.2 32 3.2 -11.8432
816 4 24 30.4 4.8 -13.2398
847 4 22.4 32 3.2 -13.3049
849 4 25.6 32 3.2 -13.3502
818 3 27.2 30.4 4.8 -11.2006
851 1 28.8 32 3.2 -11.8432
820 3 30.4 30.4 4.8 -11.2032
853 1 32 32 3.2 -11.7722
822 2 33.6 30.4 4.8 -9.78785
855 4 35.2 32 3.2 -13.2833
824 2 36.8 30.4 4.8 -9.84519
857 2 38.4 32 3.2 -9.84457
826 2 40 30.4 4.8 -9.78868
859 2 41.6 32 3.2 -9.82756
828 4 43.2 30.4 4.8 -13.208
861 1 44.8 32 3.2 -11.7635
830 3 46.4 30.4 4.8 -11.2399
863 1 48 32 3.2 -11.8257
832 3 49.6 30.4 4.8 -11.2756
834 3 1.6 33.6 4.8 -11.2345
865 1 0 35.2 3.2 -11.8577
836 2 4.8 33.6 4.8 -9.67688
867 1 3.2 35.2 3.2 -11.7524
838 3 8 33.6 4.8 -11.1648
869 1 6.4 35.2 3.2 -11.7939
840 3 11.2 33.6 4.8 -11.2016
871 1 9.6 35.2 3.2 -11.8436
842 2 14.4 33.6 4.8 -9.7523
873 4 12.8 35.2 3.2 -13.3054
844 3 17.6 33.6 4.8 -11.2668
875 4 16 35.2 3.2 -13.242
846 3 20.8 33.6 4.8 -11.2338
877 1 19.2 35.2 3.2 -11.7486
848 3 24 33.6 4.8 -11.2639
879 1 22.4 35.2 3.2 -11.7873
881 4 25.6 35.2 3.2 -13.3217
850 2 27.2 33.6 4.8 -9.8164
883 4 28.8 35.2 3.2 -13.3243
852 3 30.4 33.6 4.8 -11.2631
885 4 32 35.2 3.2 -13.2891
854 2 33.6 33.6 4.8 -9.8205
887 4 35.2 35.2 3.2 -13.2867
856 2 36.8 33.6 4.8 -9.88727
889 2 38.4 35.2 3.2 -9.83975
858 2 40 33.6 4.8 -9.90627
891 2 41.6 35.2 3.2 -9.82449
860 3 43.2 33.6 4.8 -11.3089
893 4 44.8 35.2 3.2 -13.3538
862 3 46.4 33.6 4.8 -11.2683
895 1 48 35.2 3.2 -11.7862
864 3 49.6 33.6 4.8 -11.3094
866 2 1.6 36.8 4.8 -9.80493
897 4 0 38.4 3.2 -13.354
868 3 4.8 36.8 4.8 -11.1616
899 1 3.2 38.4 3.2 -11.7865
870 3 8 36.8 4.8 -11.3073
901 4 6.4 38.4 3.2 -13.294
872 3 11.2 36.8 4.8 -11.2641
903 4 9.6 38.4 3.2 -13.2947
874 2 14.4 36.8 4.8 -9.82163
905 4 12.8 38.4 3.2 -13.3156
876 4 17.6 36.8 4.8 -13.2778
907 4 16 38.4 3.2 -13.2885
878 2 20.8 36.8 4.8 -9.76358
909 2 19.2 38.4 3.2 -9.793
880 2 24 36.8 4.8 -9.76148
911 2 22.4 38.4 3.2 -9.789
913 2 25.6 38.4 3.2 -9.78807
882 4 27.2 36.8 4.8 -13.2845
915 2 28.8 38.4 3.2 -9.79137
884 2 30.4 36.8 4.8 -9.85497
917 2 32 38.4 3.2 -9.78457
886 4 33.6 36.8 4.8 -13.3248
919 3 35.2 38.4 3.2 -11.2366
888 4 36.8 36.8 4.8 -13.2984
921 3 38.4 38.4 3.2 -11.2304
890 4 40 36.8 4.8 -13.2921
923 2 41.6 38.4 3.2 -9.89232
892 2 43.2 36.8 4.8 -9.86784
925 2 44.8 38.4 3.2 -9.86401
894 2 46.4 36.8 4.8 -9.8444
927 4 48 38.4 3.2 -13.322
896 3 49.6 36.8 4.8 -11.2976
898 2 1.6 40 4.8 -9.8186
929 2 0 41.6 3.2 -9.82658
900 2 4.8 40 4.8 -9.79076
931 4 3.2 41.6 3.2 -13.2945
902 2 8 40 4.8 -9.76715
933 1 6.4 41.6 3.2 -11.685
904 4 11.2 40 4.8 -13.3132
935 4 9.6 41.6 3.2 -13.252
906 4 14.4 40 4.8 -13.2575
937 2 12.8 41.6 3.2 -9.821
908 4 17.6 40 4.8 -13.3207
939 3 16 41.6 3.2 -11.1902
910 1 20.8 40 4.8 -11.7762
941 3 19.2 41.6 3.2 -11.3073
912 1 24 40 4.8 -11.7617
943 3 22.4 41.6 3.2 -11.2382
945 3 25.6 41.6 3.2 -11.2408
914 1 27.2 40 4.8 -11.7551
947 3 28.8 41.6 3.2 -11.2722
916 4 30.4 40 4.8 -13.352
949 3 32 41.6 3.2 -11.2331
918 1 33.6 40 4.8 -11.8431
951 3 35.2 41.6 3.2 -11.2042
920 1 36.8 40 4.8 -11.8316
953 3 38.4 41.6 3.2 -11.3084
922 4 40 40 4.8 -13.3322
955 3 41.6 41.6 3.2 -11.2974
924 2 43.2 40 4.8 -9.80995
957 3 44.8 41.6 3.2 -11.3229
926 4 46.4 40 4.8 -13.3471
959 2 48 41.6 3.2 -9.82038
928 2 49.6 40 4.8 -9.8448
930 4 1.6 43.2 4.8 -13.2734
961 2 0 44.8 3.2 -9.79205
932 2 4.8 43.2 4.8 -9.85595
963 2 3.2 44.8 3.2 -9.84218
934 4 8 43.2 4.8 -13.2621
965 2 6.4 44.8 3.2 -9.81897
936 2 11.2 43.2 4.8 -9.79662
967 3 9.6 44.8 3.2 -11.1818
938 1 14.4 43.2 4.8 -11.7643
969 2 12.8 44.8 3.2 -9.78103
940 1 17.6 43.2 4.8 -11.8434
971 3 16 44.8 3.2 -11.1657
942 1 20.8 43.2 4.8 -11.8413
973 3 19.2 44.8 3.2 -11.2417
944 1 24 43.2 4.8 -11.8414
975 3 22.4 44.8 3.2 -11.2417
977 3 25.6 44.8 3.2 -11.2753
946 1 27.2 43.2 4.8 -11.8696
979 3 28.8 44.8 3.2 -11.338
948 4 30.4 43.2 4.8 -13.4027
981 3 32 44.8 3.2 -11.2703
950 1 33.6 43.2 4.8 -11.8094
983 2 35.2 44.8 3.2 -9.7066
952 1 36.8 43.2 4.8 -11.7803
985 3 38.4 44.8 3.2 -11.2384
954 1 40 43.2 4.8 -11.8428
987 3 41.6 44.8 3.2 -11.2732
956 1 43.2 43.2 4.8 -11.8045
989 3 44.8 44.8 3.2 -11.2711
958 4 46.4 43.2 4.8 -13.2262
991 2 48 44.8 3.2 -9.81568
960 1 49.6 43.2 4.8 -11.6783
962 2 1.6 46.4 4.8 -9.81118
993 2 0 48 3.2 -9.81377
964 4 4.8 46.4 4.8 -13.3642
995 2 3.2 48 3.2 -9.84204
966 1 8 46.4 4.8 -11.693
997 2 6.4 48 3.2 -9.76165
968 4 11.2 46.4 4.8 -13.2338
999 2 9.6 48 3.2 -9.78606
970 1 14.4 46.4 4.8 -11.7706
1001 2 12.8 48 3.2 -9.7186
972 1 17.6 46.4 4.8 -11.8554
1003 3 16 48 3.2 -11.1991
974 1 20.8 46.4 4.8 -11.8555
1005 3 19.2 48 3.2 -11.3073
976 1 24 46.4 4.8 -11.8697
1007 3 22.4 48 3.2 -11.3073
1009 3 25.6 48 3.2 -11.2731
978 4 27.2 46.4 4.8 -13.3598
1011 3 28.8 48 3.2 -11.3056
980 4 30.4 46.4 4.8 -13.4012
1013 3 32 48 3.2 -11.2732
982 1 33.6 46.4 4.8 -11.7676
1015 3 35.2 48 3.2 -11.2042
984 1 36.8 46.4 4.8 -11.7682
1017 3 38.4 48 3.2 -11.2018
986 4 40 46.4 4.8 -13.3355
1019 2 41.6 48 3.2 -9.80001
988 4 43.2 46.4 4.8 -13.3033
1021 3 44.8 48 3.2 -11.1632
990 1 46.4 46.4 4.8 -11.7084
1023 3 48 48 3.2 -11.2343
992 4 49.6 46.4 4.8 -13.2576
994 1 1.6 49.6 4.8 -11.8045
996 4 4.8 49.6 4.8 -13.3242
998 4 8 49.6 4.8 -13.3164
1000 4 11.2 49.6 4.8 -13.2756
1002 1 14.4 49.6 4.8 -11.812
1004 4 17.6 49.6 4.8 -13.362
1006 4 20.8 49.6 4.8 -13.3794
1008 4 24 49.6 4.8 -13.3355
1010 1 27.2 49.6 4.8 -11.8437
1012 4 30.4 49.6 4.8 -13.3603
1014 1 33.6 49.6 4.8 -11.7983
1016 1 36.8 49.6 4.8 -11.8123
1018 1 40 49.6 4.8 -11.8019
1020 1 43.2 49.6 4.8 -11.7731
1022 1 46.4 49.6 4.8 -11.7615
1024 4 49.6 49.6 4.8 -13.3023
1025 3 0 0 6.4 -11.269
1026 1 1.6 1.6 8 -11.8554
1027 3 3.2 0 6.4 -11.3407
1028 1 4.8 1.6 8 -11.8587
1029 3 6.4 0 6.4 -11.2921
1030 4 8 1.6 8 -13.2947
1031 2 9.6 0 6.4 -9.81243
1032 1 11.2 1.6 8 -11.7281
1033 3 12.8 0 6.4 -11.2034
1034 1 14.4 1.6 8 -11.8279
1035 3 16 0 6.4 -11.2397
1036 1 17.6 1.6 8 -11.8013
1037 2 19.2 0 6.4 -9.81087
1038 4 20.8 1.6 8 -13.2939
1039 2 22.4 0 6.4 -9.81096
1040 1 24 1.6 8 -11.7735
1041 3 25.6 0 6.4 -11.2322
1042 4 27.2 1.6 8 -13.3318
1043 3 28.8 0 6.4 -11.2581
1044 4 30.4 1.6 8 -13.2999
1045 2 32 0 6.4 -9.83872
1046 4 33.6 1.6 8 -13.3338
1047 3 35.2 0 6.4 -11.2408
1048 1 36.8 1.6 8 -11.8165
1049 3 38.4 0 6.4 -11.1628
1050 4 40 1.6 8 -13.3452
1051 3 41.6 0 6.4 -11.3086
1052 4 43.2 1.6 8 -13.4016
1053 3 44.8 0 6.4 -11.1991
1054 1 46.4 1.6 8 -11.8278
1055 3 48 0 6.4 -11.2737
1056 1 49.6 1.6 8 -11.8694
1057 3 0 3.2 6.4 -11.2417
1058 1 1.6 4.8 8 -11.8437
1059 3 3.2 3.2 6.4 -11.3053
1060 4 4.8 4.8 8 -13.3774
1061 2 6.4 3.2 6.4 -9.9165
1062 4 8 4.8 8 -13.3466
1063 2 9.6 3.2 6.4 -9.75414
1064 1 11.2 4.8 8 -11.742
1065 3 12.8 3.2 6.4 -11.1232
1066 1 14.4 4.8 8 -11.7992
1067 3 16 3.2 6.4 -11.2767
1068 1 17.6 4.8 8 -11.8335
1069 3 19.2 3.2 6.4 -11.2644
1070 4 20.8 4.8 8 -13.2793
1071 3 22.4 3.2 6.4 -11.2998
1072 2 24 4.8 8 -9.8069
1073 3 25.6 3.2 6.4 -11.2684
1074 4 27.2 4.8 8 -13.2582
1075 2 28.8 3.2 6.4 -9.75067
1076 1 30.4 4.8 8 -11.6579
1077 3 32 3.2 6.4 -11.1565
1078 1 33.6 4.8 8 -11.7818
1079 3 35.2 3.2 6.4 -11.3062
1080 4 36.8 4.8 8 -13.347
1081 2 38.4 3.2 6.4 -9.81167
1082 4 40 4.8 8 -13.3472
1083 3 41.6 3.2 6.4 -11.299
1084 4 43.2 4.8 8 -13.2881
1085 3 44.8 3.2 6.4 -11.2359
1086 1 46.4 4.8 8 -11.77
1087 3 48 3.2 6.4 -11.242
1088 1 49.6 4.8 8 -11.8555
1089 3 0 6.4 6.4 -11.2751
1090 4 1.6 8 8 -13.3092
1091 3 3.2 6.4 6.4 -11.3361
1092 4 4.8 8 8 -13.2858
1093 3 6.4 6.4 6.4 -11.3547
1094 4 8 8 8 -13.3745
1095 2 9.6 6.4 6.4 -9.81093
1096 4 11.2 8 8 -13.2923
1097 2 12.8 6.4 6.4 -9.747
1098 4 14.4 8 8 -13.298
1099 3 16 6.4 6.4 -11.27
1100 4 17.6 8 8 -13.2874
1101 2 19.2 6.4 6.4 -9.78282
1102 1 20.8 8 8 -11.6507
1103 2 22.4 6.4 6.4 -9.78815
1104 2 24 8 8 -9.78822