ITEM: TIMESTEP
0
ITEM: NUMBER OF ATOMS
8192
ITEM: BOX BOUNDS pp pp pp
0.0000000000000000e+00 5.1200000000000003e+01
0.0000000000000000e+00 5.1200000000000003e+01
0.0000000000000000e+00 5.1200000000000003e+01
ITEM: ATOMS id type x y z c_eng
1 3 0 0 0 -11.2005
2 1 1.6 1.6 1.6 -11.8696
3 3 3.2 0 0 -11.2384
4 1 4.8 1.6 1.6 -11.87
5 3 6.4 0 0 -11.2378
6 1 8 1.6 1.6 -11.8835
7 3 9.6 0 0 -11.2402
8 4 11.2 1.6 1.6 -13.3088
9 2 12.8 0 0 -9.7823
10 2 14.4 1.6 1.6 -9.79327
11 2 16 0 0 -9.80519
12 1 17.6 1.6 1.6 -11.7734
13 3 19.2 0 0 -11.1978
14 4 20.8 1.6 1.6 -13.2727
15 3 22.4 0 0 -11.2707
16 4 24 1.6 1.6 -13.3337
17 3 25.6 0 0 -11.2007
18 1 27.2 1.6 1.6 -11.8416
19 3 28.8 0 0 -11.2761
20 1 30.4 1.6 1.6 -11.8121
21 3 32 0 0 -11.2376
22 1 33.6 1.6 1.6 -11.826
23 3 35.2 0 0 -11.3091
24 4 36.8 1.6 1.6 -13.3839
25 3 38.4 0 0 -11.2728
26 1 40 1.6 1.6 -11.8555
27 3 41.6 0 0 -11.2417
28 1 43.2 1.6 1.6 -11.8557
29 3 44.8 0 0 -11.2394
30 1 46.4 1.6 1.6 -11.7877
31 2 48 0 0 -9.77647
32 4 49.6 1.6 1.6 -13.2815
33 3 0 3.2 0 -11.3091
34 4 1.6 4.8 1.6 -13.3634
35 3 3.2 3.2 0 -11.3079
36 1 4.8 4.8 1.6 -11.8699
37 3 6.4 3.2 0 -11.3081
38 4 8 4.8 1.6 -13.3609
39 3 9.6 3.2 0 -11.2364
40 1 11.2 4.8 1.6 -11.7705
41 2 12.8 3.2 0 -9.78196
42 4 14.4 4.8 1.6 -13.3263
43 3 16 3.2 0 -11.1946
44 1 17.6 4.8 1.6 -11.7418
45 2 19.2 3.2 0 -9.71417
46 1 20.8 4.8 1.6 -11.7099
47 2 22.4 3.2 0 -9.75368
48 1 24 4.8 1.6 -11.7846
49 3 25.6 3.2 0 -11.3085
50 4 27.2 4.8 1.6 -13.3822
51 3 28.8 3.2 0 -11.2376
52 1 30.4 4.8 1.6 -11.8126
53 2 32 3.2 0 -9.73522
54 1 33.6 4.8 1.6 -11.7897
55 3 35.2 3.2 0 -11.2321
56 4 36.8 4.8 1.6 -13.3988
57 3 38.4 3.2 0 -11.3076
58 1 40 4.8 1.6 -11.8547
59 3 41.6 3.2 0 -11.2033
60 1 43.2 4.8 1.6 -11.8278
61 3 44.8 3.2 0 -11.2423
62 1 46.4 4.8 1.6 -11.8256
63 3 48 3.2 0 -11.2018
64 1 49.6 4.8 1.6 -11.871
65 3 0 6.4 0 -11.3089
66 1 1.6 8 1.6 -11.8834
67 3 3.2 6.4 0 -11.3081
68 1 4.8 8 1.6 -11.8589
69 3 6.4 6.4 0 -11.3018
70 4 8 8 1.6 -13.2982
71 2 9.6 6.4 0 -9.74818
72 1 11.2 8 1.6 -11.7288
73 2 12.8 6.4 0 -9.71535
74 2 14.4 8 1.6 -9.78724
75 3 16 6.4 0 -11.2289
76 4 17.6 8 1.6 -13.2722
77 3 19.2 6.4 0 -11.2355
78 1 20.8 8 1.6 -11.7608
79 3 22.4 6.4 0 -11.2363
80 1 24 8 1.6 -11.7557
81 3 25.6 6.4 0 -11.2698
82 4 27.2 8 1.6 -13.3539
83 3 28.8 6.4 0 -11.3081
84 1 30.4 8 1.6 -11.7871
85 3 32 6.4 0 -11.1613
86 4 33.6 8 1.6 -13.2717
87 2 35.2 6.4 0 -9.82992
88 4 36.8 8 1.6 -13.3741
89 3 38.4 6.4 0 -11.2684
90 4 40 8 1.6 -13.3487
91 2 41.6 6.4 0 -9.77454
92 4 43.2 8 1.6 -13.3576
93 3 44.8 6.4 0 -11.2722
94 4 46.4 8 1.6 -13.384
95 3 48 6.4 0 -11.2729
96 4 49.6 8 1.6 -13.3817
97 3 0 9.6 0 -11.2709
98 1 1.6 11.2 1.6 -11.7717
99 3 3.2 9.6 0 -11.2382
100 4 4.8 11.2 1.6 -13.3005
101 2 6.4 9.6 0 -9.81514
102 1 8 11.2 1.6 -11.7761
103 4 9.6 9.6 0 -13.197
104 4 11.2 11.2 1.6 -13.2696
105 2 12.8 9.6 0 -9.67417
106 4 14.4 11.2 1.6 -13.2206
107 4 16 9.6 0 -13.2053
108 4 17.6 11.2 1.6 -13.2547
109 4 19.2 9.6 0 -13.3113
110 2 20.8 11.2 1.6 -9.78923
111 3 22.4 9.6 0 -11.1944
112 1 24 11.2 1.6 -11.7727
113 3 25.6 9.6 0 -11.2742
114 4 27.2 11.2 1.6 -13.2889
115 3 28.8 9.6 0 -11.3066
116 4 30.4 11.2 1.6 -13.3331
117 3 32 9.6 0 -11.2361
118 4 33.6 11.2 1.6 -13.3188
119 3 35.2 9.6 0 -11.227
120 4 36.8 11.2 1.6 -13.3185
121 3 38.4 9.6 0 -11.2634
122 4 40 11.2 1.6 -13.2826
123 2 41.6 9.6 0 -9.84563
124 2 43.2 11.2 1.6 -9.85403
125 3 44.8 9.6 0 -11.2517
126 4 46.4 11.2 1.6 -13.3443
127 2 48 9.6 0 -9.86589
128 4 49.6 11.2 1.6 -13.4005
129 2 0 12.8 0 -9.84222
130 4 1.6 14.4 1.6 -13.297
131 2 3.2 12.8 0 -9.79149
132 2 4.8 14.4 1.6 -9.76093
133 2 6.4 12.8 0 -9.79613
134 4 8 14.4 1.6 -13.2764
135 3 9.6 12.8 0 -11.2351
136 2 11.2 14.4 1.6 -9.85309
137 4 12.8 12.8 0 -13.2349
138 2 14.4 14.4 1.6 -9.75275
139 2 16 12.8 0 -9.70618
140 1 17.6 14.4 1.6 -11.7613
141 3 19.2 12.8 0 -11.2802
142 4 20.8 14.4 1.6 -13.3112
143 2 22.4 12.8 0 -9.86454
144 1 24 14.4 1.6 -11.7695
145 3 25.6 12.8 0 -11.2642
146 4 27.2 14.4 1.6 -13.3493
147 3 28.8 12.8 0 -11.3244
148 2 30.4 14.4 1.6 -9.88203
149 2 32 12.8 0 -9.86659
150 2 33.6 14.4 1.6 -9.83655
151 2 35.2 12.8 0 -9.83963
152 2 36.8 14.4 1.6 -9.84595
153 4 38.4 12.8 0 -13.2533
154 2 40 14.4 1.6 -9.82448
155 4 41.6 12.8 0 -13.3075
156 3 43.2 14.4 1.6 -11.2473
157 2 44.8 12.8 0 -9.86492
158 4 46.4 14.4 1.6 -13.4155
159 2 48 12.8 0 -9.89104
160 3 49.6 14.4 1.6 -11.3236
161 4 0 16 0 -13.3555
162 3 1.6 17.6 1.6 -11.2655
163 4 3.2 16 0 -13.2941
164 3 4.8 17.6 1.6 -11.3042
165 1 6.4 16 0 -11.7064
166 3 8 17.6 1.6 -11.1549
167 1 9.6 16 0 -11.7271
168 2 11.2 17.6 1.6 -9.815
169 4 12.8 16 0 -13.2157
170 2 14.4 17.6 1.6 -9.8213
171 4 16 16 0 -13.2286
172 2 17.6 17.6 1.6 -9.76044
173 2 19.2 16 0 -9.79436
174 4 20.8 17.6 1.6 -13.3163
175 2 22.4 16 0 -9.82032
176 2 24 17.6 1.6 -9.81414
177 2 25.6 16 0 -9.84112
178 2 27.2 17.6 1.6 -9.78492
179 2 28.8 16 0 -9.83153
180 3 30.4 17.6 1.6 -11.252
181 4 32 16 0 -13.3828
182 2 33.6 17.6 1.6 -9.8453
183 2 35.2 16 0 -9.80719
184 4 36.8 17.6 1.6 -13.2486
185 4 38.4 16 0 -13.3111
186 2 40 17.6 1.6 -9.84741
187 4 41.6 16 0 -13.2879
188 3 43.2 17.6 1.6 -11.3374
189 4 44.8 16 0 -13.3389
190 3 46.4 17.6 1.6 -11.2352
191 4 48 16 0 -13.3298
192 3 49.6 17.6 1.6 -11.2977
193 4 0 19.2 0 -13.3566
194 3 1.6 20.8 1.6 -11.2328
195 4 3.2 19.2 0 -13.3783
196 3 4.8 20.8 1.6 -11.3076
197 4 6.4 19.2 0 -13.3315
198 3 8 20.8 1.6 -11.2387
199 1 9.6 19.2 0 -11.7829
200 3 11.2 20.8 1.6 -11.2367
201 4 12.8 19.2 0 -13.3242
202 3 14.4 20.8 1.6 -11.2988
203 1 16 19.2 0 -11.7871
204 2 17.6 20.8 1.6 -9.79446
205 1 19.2 19.2 0 -11.7109
206 3 20.8 20.8 1.6 -11.2842
207 4 22.4 19.2 0 -13.2578
208 2 24 20.8 1.6 -9.84134
209 1 25.6 19.2 0 -11.7181
210 4 27.2 20.8 1.6 -13.1532
211 1 28.8 19.2 0 -11.7246
212 3 30.4 20.8 1.6 -11.2645
213 4 32 19.2 0 -13.3455
214 3 33.6 20.8 1.6 -11.3325
215 4 35.2 19.2 0 -13.3254
216 3 36.8 20.8 1.6 -11.2984
217 4 38.4 19.2 0 -13.3071
218 3 40 20.8 1.6 -11.3616
219 4 41.6 19.2 0 -13.3734
220 3 43.2 20.8 1.6 -11.2686
221 1 44.8 19.2 0 -11.8145
222 3 46.4 20.8 1.6 -11.2045
223 1 48 19.2 0 -11.8134
224 2 49.6 20.8 1.6 -9.74088
225 1 0 22.4 0 -11.766
226 2 1.6 24 1.6 -9.71256
227 1 3.2 22.4 0 -11.8258
228 3 4.8 24 1.6 -11.2021
229 1 6.4 22.4 0 -11.8556
230 3 8 24 1.6 -11.2734
231 1 9.6 22.4 0 -11.8555
232 3 11.2 24 1.6 -11.2364
233 1 12.8 22.4 0 -11.8692
234 3 14.4 24 1.6 -11.3024
235 4 16 22.4 0 -13.3489
236 2 17.6 24 1.6 -9.81752
237 1 19.2 22.4 0 -11.76
238 3 20.8 24 1.6 -11.2258
239 4 22.4 22.4 0 -13.3979
240 3 24 24 1.6 -11.3368
241 4 25.6 22.4 0 -13.3278
242 3 27.2 24 1.6 -11.2374
243 1 28.8 22.4 0 -11.7827
244 3 30.4 24 1.6 -11.2017
245 4 32 22.4 0 -13.3344
246 3 33.6 24 1.6 -11.2764
247 1 35.2 22.4 0 -11.8725
248 3 36.8 24 1.6 -11.2384
249 4 38.4 22.4 0 -13.3799
250 3 40 24 1.6 -11.2732
251 4 41.6 22.4 0 -13.357
252 3 43.2 24 1.6 -11.24
253 1 44.8 22.4 0 -11.7985
254 3 46.4 24 1.6 -11.2039
255 1 48 22.4 0 -11.781
256 2 49.6 24 1.6 -9.67676
257 1 0 25.6 0 -11.7808
259 1 3.2 25.6 0 -11.8023
261 1 6.4 25.6 0 -11.7962
263 4 9.6 25.6 0 -13.3346
265 1 12.8 25.6 0 -11.8289
267 4 16 25.6 0 -13.3494
269 1 19.2 25.6 0 -11.7143
271 1 22.4 25.6 0 -11.7996
273 1 25.6 25.6 0 -11.8551
275 1 28.8 25.6 0 -11.8412
277 1 32 25.6 0 -11.8575
279 1 35.2 25.6 0 -11.8253
281 1 38.4 25.6 0 -11.7979
283 1 41.6 25.6 0 -11.7985
285 1 44.8 25.6 0 -11.8122
287 1 48 25.6 0 -11.8124
258 3 1.6 27.2 1.6 -11.2021
289 1 0 28.8 0 -11.8282
260 2 4.8 27.2 1.6 -9.74077
291 1 3.2 28.8 0 -11.8259
262 2 8 27.2 1.6 -9.77921
293 1 6.4 28.8 0 -11.7964
264 2 11.2 27.2 1.6 -9.81714
295 4 9.6 28.8 0 -13.3068
266 3 14.4 27.2 1.6 -11.2901
297 4 12.8 28.8 0 -13.3444
268 2 17.6 27.2 1.6 -9.81123
299 4 16 28.8 0 -13.3509
270 2 20.8 27.2 1.6 -9.72701
301 1 19.2 28.8 0 -11.7682
272 3 24 27.2 1.6 -11.2737
303 4 22.4 28.8 0 -13.305
305 1 25.6 28.8 0 -11.8475
274 3 27.2 27.2 1.6 -11.2727
307 4 28.8 28.8 0 -13.3983
276 3 30.4 27.2 1.6 -11.339
309 4 32 28.8 0 -13.3782
278 3 33.6 27.2 1.6 -11.2733
311 1 35.2 28.8 0 -11.7856
280 2 36.8 27.2 1.6 -9.77464
313 1 38.4 28.8 0 -11.8025
282 3 40 27.2 1.6 -11.2397
315 1 41.6 28.8 0 -11.8277
284 3 43.2 27.2 1.6 -11.242
317 1 44.8 28.8 0 -11.8282
286 3 46.4 27.2 1.6 -11.2417
319 1 48 28.8 0 -11.8121
288 3 49.6 27.2 1.6 -11.2039
290 3 1.6 30.4 1.6 -11.2761
321 1 0 32 0 -11.7975
292 3 4.8 30.4 1.6 -11.2381
323 4 3.2 32 0 -13.3656
294 3 8 30.4 1.6 -11.2408
325 1 6.4 32 0 -11.8554
296 3 11.2 30.4 1.6 -11.2284
327 1 9.6 32 0 -11.8177
298 3 14.4 30.4 1.6 -11.3307
329 4 12.8 32 0 -13.2745
300 2 17.6 30.4 1.6 -9.783
331 1 16 32 0 -11.802
302 3 20.8 30.4 1.6 -11.2313
333 4 19.2 32 0 -13.3042
304 3 24 30.4 1.6 -11.2687
335 1 22.4 32 0 -11.8625
337 4 25.6 32 0 -13.311
306 2 27.2 30.4 1.6 -9.80719
339 1 28.8 32 0 -11.8827
308 3 30.4 30.4 1.6 -11.2606
341 4 32 32 0 -13.3215
310 3 33.6 30.4 1.6 -11.3328
343 4 35.2 32 0 -13.3237
312 3 36.8 30.4 1.6 -11.2879
345 4 38.4 32 0 -13.2639
314 3 40 30.4 1.6 -11.334
347 4 41.6 32 0 -13.3289
316 3 43.2 30.4 1.6 -11.272
349 1 44.8 32 0 -11.7694
318 3 46.4 30.4 1.6 -11.24
351 1 48 32 0 -11.7876
320 3 49.6 30.4 1.6 -11.2002
322 3 1.6 33.6 1.6 -11.1991
353 1 0 35.2 0 -11.7679
324 3 4.8 33.6 1.6 -11.2357
355 1 3.2 35.2 0 -11.7635
326 3 8 33.6 1.6 -11.3293
357 1 6.4 35.2 0 -11.853
328 2 11.2 33.6 1.6 -9.84357
359 2 9.6 35.2 0 -9.79406
330 3 14.4 33.6 1.6 -11.1958
361 1 12.8 35.2 0 -11.7525
332 2 17.6 33.6 1.6 -9.75755
363 1 16 35.2 0 -11.7536
334 3 20.8 33.6 1.6 -11.3022
365 1 19.2 35.2 0 -11.7738
336 3 24 33.6 1.6 -11.338
367 4 22.4 35.2 0 -13.3501
369 1 25.6 35.2 0 -11.7997
338 3 27.2 33.6 1.6 -11.3017
371 2 28.8 35.2 0 -9.81422
340 3 30.4 33.6 1.6 -11.323
373 4 32 35.2 0 -13.2975
342 2 33.6 33.6 1.6 -9.86928
375 2 35.2 35.2 0 -9.8436
344 2 36.8 33.6 1.6 -9.81597
377 4 38.4 35.2 0 -13.2846
346 4 40 33.6 1.6 -13.3094
379 4 41.6 35.2 0 -13.261
348 3 43.2 33.6 1.6 -11.1901
381 1 44.8 35.2 0 -11.774
350 2 46.4 33.6 1.6 -9.77657
383 4 48 35.2 0 -13.3101
352 2 49.6 33.6 1.6 -9.77647
354 2 1.6 36.8 1.6 -9.71256
385 1 0 38.4 0 -11.7845
356 2 4.8 36.8 1.6 -9.74853
387 1 3.2 38.4 0 -11.7679
358 3 8 36.8 1.6 -11.3281
389 1 6.4 38.4 0 -11.8251
360 2 11.2 36.8 1.6 -9.7577
391 1 9.6 38.4 0 -11.8053
362 2 14.4 36.8 1.6 -9.79415
393 4 12.8 38.4 0 -13.1817
364 4 17.6 36.8 1.6 -13.3
395 4 16 38.4 0 -13.3247
366 3 20.8 36.8 1.6 -11.2742
397 4 19.2 38.4 0 -13.3262
368 2 24 36.8 1.6 -9.86659
399 4 22.4 38.4 0 -13.3144
401 4 25.6 38.4 0 -13.1917
370 4 27.2 36.8 1.6 -13.251
403 2 28.8 38.4 0 -9.79294
372 2 30.4 36.8 1.6 -9.85899
405 4 32 38.4 0 -13.2067
374 4 33.6 36.8 1.6 -13.2832
407 2 35.2 38.4 0 -9.75377
376 4 36.8 36.8 1.6 -13.3718
409 3 38.4 38.4 0 -11.3509
378 2 40 36.8 1.6 -9.82347
411 2 41.6 38.4 0 -9.84087
380 2 43.2 36.8 1.6 -9.75656
413 1 44.8 38.4 0 -11.6928
382 3 46.4 36.8 1.6 -11.1195
415 1 48 38.4 0 -11.7994
384 3 49.6 36.8 1.6 -11.2013
386 3 1.6 40 1.6 -11.2005
417 4 0 41.6 0 -13.2693
388 3 4.8 40 1.6 -11.2707
419 1 3.2 41.6 0 -11.7459
390 3 8 40 1.6 -11.2702
421 4 6.4 41.6 0 -13.3811
392 2 11.2 40 1.6 -9.76056
423 4 9.6 41.6 0 -13.2982
394 2 14.4 40 1.6 -9.7673
425 1 12.8 41.6 0 -11.7043
396 2 17.6 40 1.6 -9.81587
427 2 16 41.6 0 -9.79073
398 2 20.8 40 1.6 -9.88783
429 2 19.2 41.6 0 -9.86903
400 4 24 40 1.6 -13.3203
431 2 22.4 41.6 0 -9.73334
433 3 25.6 41.6 0 -11.2358
402 1 27.2 40 1.6 -11.7288
435 3 28.8 41.6 0 -11.2364
404 4 30.4 40 1.6 -13.3016
437 3 32 41.6 0 -11.2327
406 1 33.6 40 1.6 -11.7285
439 2 35.2 41.6 0 -9.72152
408 4 36.8 40 1.6 -13.3176
441 3 38.4 41.6 0 -11.3033
410 4 40 40 1.6 -13.3975
443 3 41.6 41.6 0 -11.3331
412 4 43.2 40 1.6 -13.2796
445 2 44.8 41.6 0 -9.82101
414 2 46.4 40 1.6 -9.75895
447 4 48 41.6 0 -13.3329
416 3 49.6 40 1.6 -11.235
418 4 1.6 43.2 1.6 -13.2174
449 2 0 44.8 0 -9.84557
420 2 4.8 43.2 1.6 -9.8132
451 2 3.2 44.8 0 -9.79514
422 2 8 43.2 1.6 -9.84266
453 2 6.4 44.8 0 -9.84343
424 2 11.2 43.2 1.6 -9.73605
455 2 9.6 44.8 0 -9.84475
426 1 14.4 43.2 1.6 -11.6824
457 2 12.8 44.8 0 -9.79063
428 4 17.6 43.2 1.6 -13.2646
459 3 16 44.8 0 -11.3025
430 4 20.8 43.2 1.6 -13.2426
461 3 19.2 44.8 0 -11.2614
432 4 24 43.2 1.6 -13.3043
463 4 22.4 44.8 0 -13.2568
465 3 25.6 44.8 0 -11.1616
434 1 27.2 43.2 1.6 -11.8414
467 3 28.8 44.8 0 -11.242
436 1 30.4 43.2 1.6 -11.8415
469 3 32 44.8 0 -11.2397
438 4 33.6 43.2 1.6 -13.2486
471 2 35.2 44.8 0 -9.74842
440 1 36.8 43.2 1.6 -11.7738
473 3 38.4 44.8 0 -11.24
442 1 40 43.2 1.6 -11.8413
475 3 41.6 44.8 0 -11.2731
444 4 43.2 43.2 1.6 -13.354
477 3 44.8 44.8 0 -11.3369
446 4 46.4 43.2 1.6 -13.3533
479 3 48 44.8 0 -11.2538
448 2 49.6 43.2 1.6 -9.81347
450 4 1.6 46.4 1.6 -13.264
481 2 0 48 0 -9.78001
452 1 4.8 46.4 1.6 -11.7515
483 2 3.2 48 0 -9.72356
454 4 8 46.4 1.6 -13.3006
485 2 6.4 48 0 -9.77883
456 1 11.2 46.4 1.6 -11.7607
487 3 9.6 48 0 -11.2346
458 1 14.4 46.4 1.6 -11.8245
489 3 12.8 48 0 -11.2337
460 1 17.6 46.4 1.6 -11.7821
491 3 16 48 0 -11.2355
462 1 20.8 46.4 1.6 -11.733
493 2 19.2 48 0 -9.75705
464 1 24 46.4 1.6 -11.7343
495 2 22.4 48 0 -9.72448
497 2 25.6 48 0 -9.67712
466 1 27.2 46.4 1.6 -11.8122
499 3 28.8 48 0 -11.2378
468 1 30.4 46.4 1.6 -11.8415
501 3 32 48 0 -11.2756
470 1 33.6 46.4 1.6 -11.8164
503 3 35.2 48 0 -11.2731
472 4 36.8 46.4 1.6 -13.3106
505 3 38.4 48 0 -11.3091
474 1 40 46.4 1.6 -11.8258
507 3 41.6 48 0 -11.2756
476 1 43.2 46.4 1.6 -11.8707
509 3 44.8 48 0 -11.339
478 4 46.4 46.4 1.6 -13.3516
511 3 48 48 0 -11.2677
480 1 49.6 46.4 1.6 -11.7938
482 1 1.6 49.6 1.6 -11.7985
484 1 4.8 49.6 1.6 -11.7804
486 1 8 49.6 1.6 -11.8279
488 1 11.2 49.6 1.6 -11.8158
490 4 14.4 49.6 1.6 -13.3361
492 1 17.6 49.6 1.6 -11.7674
494 1 20.8 49.6 1.6 -11.7804
496 1 24 49.6 1.6 -11.7677
498 1 27.2 49.6 1.6 -11.7844
500 1 30.4 49.6 1.6 -11.8558
502 1 33.6 49.6 1.6 -11.8413
504 1 36.8 49.6 1.6 -11.8842
506 1 40 49.6 1.6 -11.8414
508 1 43.2 49.6 1.6 -11.8554
510 4 46.4 49.6 1.6 -13.3291
512 1 49.6 49.6 1.6 -11.787
513 3 0 0 3.2 -11.2405
514 1 1.6 1.6 4.8 -11.8553
515 3 3.2 0 3.2 -11.2756
516 4 4.8 1.6 4.8 -13.385
517 3 6.4 0 3.2 -11.307
518 4 8 1.6 4.8 -13.3839
519 3 9.6 0 3.2 -11.2733
520 1 11.2 1.6 4.8 -11.7802
521 2 12.8 0 3.2 -9.80866
522 1 14.4 1.6 4.8 -11.7765
523 3 16 0 3.2 -11.2343
524 1 17.6 1.6 4.8 -11.7981
525 3 19.2 0 3.2 -11.2025
526 1 20.8 1.6 4.8 -11.8267
527 3 22.4 0 3.2 -11.2707
528 4 24 1.6 4.8 -13.3777
529 2 25.6 0 3.2 -9.7999
530 1 27.2 1.6 4.8 -11.8276
531 3 28.8 0 3.2 -11.2039
532 1 30.4 1.6 4.8 -11.8313
533 3 32 0 3.2 -11.242
534 1 33.6 1.6 4.8 -11.8119
535 3 35.2 0 3.2 -11.2753
536 1 36.8 1.6 4.8 -11.8694
537 3 38.4 0 3.2 -11.2753
538 1 40 1.6 4.8 -11.8694
539 3 41.6 0 3.2 -11.2753
540 4 43.2 1.6 4.8 -13.3135
541 3 44.8 0 3.2 -11.2734
542 1 46.4 1.6 4.8 -11.722
543 2 48 0 3.2 -9.74853
544 1 49.6 1.6 4.8 -11.7851
545 3 0 3.2 3.2 -11.308
546 1 1.6 4.8 4.8 -11.8441
547 3 3.2 3.2 3.2 -11.3081
548 1 4.8 4.8 4.8 -11.7937
549 3 6.4 3.2 3.2 -11.339
550 1 8 4.8 4.8 -11.807
551 3 9.6 3.2 3.2 -11.307
552 1 11.2 4.8 4.8 -11.7581
553 2 12.8 3.2 3.2 -9.78635
554 4 14.4 4.8 4.8 -13.2962
555 2 16 3.2 3.2 -9.7886
556 4 17.6 4.8 4.8 -13.279
557 2 19.2 3.2 3.2 -9.72232
558 1 20.8 4.8 4.8 -11.7585
559 2 22.4 3.2 3.2 -9.77935
560 4 24 4.8 4.8 -13.363
561 3 25.6 3.2 3.2 -11.2967
562 4 27.2 4.8 4.8 -13.3975
563 3 28.8 3.2 3.2 -11.3051
564 4 30.4 4.8 4.8 -13.3274
565 3 32 3.2 3.2 -11.1625
566 1 33.6 4.8 4.8 -11.7826
567 3 35.2 3.2 3.2 -11.3388
568 4 36.8 4.8 4.8 -13.3797
569 3 38.4 3.2 3.2 -11.3679
570 4 40 4.8 4.8 -13.3867
571 3 41.6 3.2 3.2 -11.3094
572 1 43.2 4.8 4.8 -11.8236
573 3 44.8 3.2 3.2 -11.1613
574 1 46.4 4.8 4.8 -11.765
575 2 48 3.2 3.2 -9.74731
576 4 49.6 4.8 4.8 -13.3068
577 3 0 6.4 3.2 -11.3399
578 4 1.6 8 4.8 -13.3333
579 3 3.2 6.4 3.2 -11.2733
580 1 4.8 8 4.8 -11.8093
581 3 6.4 6.4 3.2 -11.2705
582 1 8 8 4.8 -11.7941
583 3 9.6 6.4 3.2 -11.2366
584 1 11.2 8 4.8 -11.7696
585 3 12.8 6.4 3.2 -11.1878
586 4 14.4 8 4.8 -13.3388
587 4 16 6.4 3.2 -13.345
588 4 17.6 8 4.8 -13.308
589 3 19.2 6.4 3.2 -11.0726
590 1 20.8 8 4.8 -11.7216
591 2 22.4 6.4 3.2 -9.71991
592 4 24 8 4.8 -13.2276
593 2 25.6 6.4 3.2 -9.86464
594 4 27.2 8 4.8 -13.2829
595 3 28.8 6.4 3.2 -11.2912
596 4 30.4 8 4.8 -13.2812
597 2 32 6.4 3.2 -9.75504
598 1 33.6 8 4.8 -11.7184
599 3 35.2 6.4 3.2 -11.2637
600 1 36.8 8 4.8 -11.7469
601 3 38.4 6.4 3.2 -11.3253
602 4 40 8 4.8 -13.2838
603 3 41.6 6.4 3.2 -11.3316
604 4 43.2 8 4.8 -13.3152
605 3 44.8 6.4 3.2 -11.3047
606 4 46.4 8 4.8 -13.3253
607 3 48 6.4 3.2 -11.3354
608 1 49.6 8 4.8 -11.8598
609 3 0 9.6 3.2 -11.305
610 1 1.6 11.2 4.8 -11.7549
611 3 3.2 9.6 3.2 -11.3062
612 4 4.8 11.2 4.8 -13.332
613 3 6.4 9.6 3.2 -11.2706
614 1 8 11.2 4.8 -11.8276
615 3 9.6 9.6 3.2 -11.2016
616 1 11.2 11.2 4.8 -11.7849
617 2 12.8 9.6 3.2 -9.81352
618 1 14.4 11.2 4.8 -11.7108
619 2 16 9.6 3.2 -9.79393
620 4 17.6 11.2 4.8 -13.3175
621 2 19.2 9.6 3.2 -9.79226
622 1 20.8 11.2 4.8 -11.7473
623 2 22.4 9.6 3.2 -9.72627
624 1 24 11.2 4.8 -11.6526
625 2 25.6 9.6 3.2 -9.69489
626 1 27.2 11.2 4.8 -11.6763
627 2 28.8 9.6 3.2 -9.79584
628 2 30.4 11.2 4.8 -9.78168
629 4 32 9.6 3.2 -13.1997
630 4 33.6 11.2 4.8 -13.2784
631 2 35.2 9.6 3.2 -9.81876
632 2 36.8 11.2 4.8 -9.82142
633 2 38.4 9.6 3.2 -9.84749
634 4 40 11.2 4.8 -13.3123
635 2 41.6 9.6 3.2 -9.84743
636 4 43.2 11.2 4.8 -13.2024
637 4 44.8 9.6 3.2 -13.2744
638 4 46.4 11.2 4.8 -13.184
639 3 48 9.6 3.2 -11.2931
640 1 49.6 11.2 4.8 -11.7805
641 2 0 12.8 3.2 -9.82751
642 2 1.6 14.4 4.8 -9.76557
643 2 3.2 12.8 3.2 -9.79377
644 4 4.8 14.4 4.8 -13.267
645 2 6.4 12.8 3.2 -9.81588
646 1 8 14.4 4.8 -11.6903
647 3 9.6 12.8 3.2 -11.2626
648 4 11.2 14.4 4.8 -13.3047
649 2 12.8 12.8 3.2 -9.78461
650 1 14.4 14.4 4.8 -11.7213
651 2 16 12.8 3.2 -9.79722
652 2 17.6 14.4 4.8 -9.74179
653 2 19.2 12.8 3.2 -9.8744
654 4 20.8 14.4 4.8 -13.3525
655 3 22.4 12.8 3.2 -11.1841
656 4 24 14.4 4.8 -13.2936
657 2 25.6 12.8 3.2 -9.76018
658 2 27.2 14.4 4.8 -9.7612
659 4 28.8 12.8 3.2 -13.2835
660 2 30.4 14.4 4.8 -9.75834
661 2 32 12.8 3.2 -9.83904
662 4 33.6 14.4 4.8 -13.2113
663 2 35.2 12.8 3.2 -9.81291
664 2 36.8 14.4 4.8 -9.8408
665 4 38.4 12.8 3.2 -13.3395
666 4 40 14.4 4.8 -13.2895
667 2 41.6 12.8 3.2 -9.80299
668 2 43.2 14.4 4.8 -9.79023
669 4 44.8 12.8 3.2 -13.2885
670 3 46.4 14.4 4.8 -11.2089
671 3 48 12.8 3.2 -11.3484
672 3 49.6 14.4 4.8 -11.3367
673 1 0 16 3.2 -11.7992
674 3 1.6 17.6 4.8 -11.2369
675 1 3.2 16 3.2 -11.7492
676 3 4.8 17.6 4.8 -11.2366
677 4 6.4 16 3.2 -13.2106
678 2 8 17.6 4.8 -9.76558
679 4 9.6 16 3.2 -13.2732
680 2 11.2 17.6 4.8 -9.80461
681 2 12.8 16 3.2 -9.83958
682 1 14.4 17.6 4.8 -11.6987
683 2 16 16 3.2 -9.7972
684 4 17.6 17.6 4.8 -13.247
685 2 19.2 16 3.2 -9.84654
686 2 20.8 17.6 4.8 -9.86397
687 2 22.4 16 3.2 -9.86811
688 2 24 17.6 4.8 -9.84001
689 2 25.6 16 3.2 -9.83596
690 2 27.2 17.6 4.8 -9.78453
691 4 28.8 16 3.2 -13.2873
692 2 30.4 17.6 4.8 -9.78481
693 4 32 16 3.2 -13.2475
694 2 33.6 17.6 4.8 -9.75826
695 1 35.2 16 3.2 -11.7038
696 2 36.8 17.6 4.8 -9.79408
697 2 38.4 16 3.2 -9.75
698 2 40 17.6 4.8 -9.81958
699 1 41.6 16 3.2 -11.7832
700 3 43.2 17.6 4.8 -11.2006
701 1 44.8 16 3.2 -11.8051
702 3 46.4 17.6 4.8 -11.2742
703 4 48 16 3.2 -13.3988
704 2 49.6 17.6 4.8 -9.80483
705 1 0 19.2 3.2 -11.7996
706 3 1.6 20.8 4.8 -11.24
707 1 3.2 19.2 3.2 -11.8552
708 3 4.8 20.8 4.8 -11.272
709 1 6.4 19.2 3.2 -11.809
710 2 8 20.8 4.8 -9.78
711 1 9.6 19.2 3.2 -11.7457
712 2 11.2 20.8 4.8 -9.81664
713 4 12.8 19.2 3.2 -13.3009
714 2 14.4 20.8 4.8 -9.70537
715 4 16 19.2 3.2 -13.2349
716 1 17.6 20.8 4.8 -11.6253
717 2 19.2 19.2 3.2 -9.79761
718 3 20.8 20.8 4.8 -11.2745
719 4 22.4 19.2 3.2 -13.369
720 2 24 20.8 4.8 -9.84252
721 4 25.6 19.2 3.2 -13.2289
722 3 27.2 20.8 4.8 -11.1611
723 1 28.8 19.2 3.2 -11.7402
724 3 30.4 20.8 4.8 -11.2358
725 4 32 19.2 3.2 -13.3785
726 3 33.6 20.8 4.8 -11.3016
727 4 35.2 19.2 3.2 -13.2873
728 2 36.8 20.8 4.8 -9.80624
729 4 38.4 19.2 3.2 -13.3291
730 3 40 20.8 4.8 -11.1983
731 4 41.6 19.2 3.2 -13.3287
732 2 43.2 20.8 4.8 -9.769
733 1 44.8 19.2 3.2 -11.828
734 3 46.4 20.8 4.8 -11.2042
735 1 48 19.2 3.2 -11.7997
736 3 49.6 20.8 4.8 -11.1645
737 1 0 22.4 3.2 -11.7201
738 2 1.6 24 4.8 -9.80702
739 1 3.2 22.4 3.2 -11.8139
740 3 4.8 24 4.8 -11.3031
741 1 6.4 22.4 3.2 -11.8275
742 3 8 24 4.8 -11.2959
743 1 9.6 22.4 3.2 -11.802
744 2 11.2 24 4.8 -9.8173
745 1 12.8 22.4 3.2 -11.7713
746 2 14.4 24 4.8 -9.79418
747 4 16 22.4 3.2 -13.2561
748 2 17.6 24 4.8 -9.79201
749 4 19.2 22.4 3.2 -13.3188
750 2 20.8 24 4.8 -9.77943
751 4 22.4 22.4 3.2 -13.3983
752 3 24 24 4.8 -11.2711
753 4 25.6 22.4 3.2 -13.3337
754 3 27.2 24 4.8 -11.2359
755 1 28.8 22.4 3.2 -11.7672
756 2 30.4 24 4.8 -9.7998
757 1 32 22.4 3.2 -11.8393
758 3 33.6 24 4.8 -11.24
759 1 35.2 22.4 3.2 -11.8277
760 3 36.8 24 4.8 -11.1655
761 1 38.4 22.4 3.2 -11.8414
762 3 40 24 4.8 -11.2402
763 1 41.6 22.4 3.2 -11.8414
764 3 43.2 24 4.8 -11.2005
765 1 44.8 22.4 3.2 -11.8122
766 3 46.4 24 4.8 -11.2042
767 1 48 22.4 3.2 -11.7811
768 3 49.6 24 4.8 -11.2007
769 1 0 25.6 3.2 -11.7833
771 4 3.2 25.6 3.2 -13.2852
773 1 6.4 25.6 3.2 -11.825
775 4 9.6 25.6 3.2 -13.2973
777 1 12.8 25.6 3.2 -11.7538
779 4 16 25.6 3.2 -13.3218
781 4 19.2 25.6 3.2 -13.2057
783 1 22.4 25.6 3.2 -11.769
785 1 25.6 25.6 3.2 -11.8552
787 1 28.8 25.6 3.2 -11.8414
789 1 32 25.6 3.2 -11.8277
791 1 35.2 25.6 3.2 -11.7986
793 1 38.4 25.6 3.2 -11.7983
795 1 41.6 25.6 3.2 -11.8555
797 1 44.8 25.6 3.2 -11.8416
799 1 48 25.6 3.2 -11.8122
770 3 1.6 27.2 4.8 -11.2751
801 1 0 28.8 3.2 -11.8413
772 3 4.8 27.2 4.8 -11.2377
803 1 3.2 28.8 3.2 -11.8282
774 3 8 27.2 4.8 -11.2329
805 1 6.4 28.8 3.2 -11.7804
776 2 11.2 27.2 4.8 -9.76217
807 1 9.6 28.8 3.2 -11.7746
778 4 14.4 27.2 4.8 -13.3478
809 4 12.8 28.8 3.2 -13.2931
780 3 17.6 27.2 4.8 -11.1862
811 4 16 28.8 3.2 -13.3563
782 4 20.8 27.2 4.8 -13.1139
813 1 19.2 28.8 3.2 -11.7129
784 3 24 27.2 4.8 -11.2694
815 4 22.4 28.8 3.2 -13.2955
817 1 25.6 28.8 3.2 -11.8269
786 3 27.2 27.2 4.8 -11.3033
819 4 28.8 28.8 3.2 -13.2974
788 3 30.4 27.2 4.8 -11.2969
821 1 32 28.8 3.2 -11.8411
790 3 33.6 27.2 4.8 -11.2694
823 4 35.2 28.8 3.2 -13.3514
792 2 36.8 27.2 4.8 -9.80473
825 4 38.4 28.8 3.2 -13.3735
794 3 40 27.2 4.8 -11.3342
827 1 41.6 28.8 3.2 -11.8833
796 3 43.2 27.2 4.8 -11.307
829 1 44.8 28.8 3.2 -11.8412
798 3 46.4 27.2 4.8 -11.2759
831 1 48 28.8 3.2 -11.8698
800 3 49.6 27.2 4.8 -11.3091
802 3 1.6 30.4 4.8 -11.2417
833 1 0 32 3.2 -11.8282
804 3 4.8 30.4 4.8 -11.2402
835 1 3.2 32 3.2 -11.8258
806 3 8 30.4 4.8 -11.2364
837 1 6.4 32 3.2 -11.8155
808 2 11.2 30.4 4.8 -9.81217
839 1 9.6 32 3.2 -11.7758
810 3 14.4 30.4 4.8 -11.225
841 1 12.8 32 3.2 -11.7884
812 3 17.6 30.4 4.8 -11.2341
843 1 16 32 3.2 -11.7846
814 2 20.8 30.4 4.8 -9.74816
845 1 19.2 32 3.2 -11.7847
816 3 24 30.4 4.8 -11.2691
847 1 22.4 32 3.2 -11.8414
849 1 25.6 32 3.2 -11.8086
818 2 27.2 30.4 4.8 -9.81168
851 1 28.8 32 3.2 -11.7284
820 4 30.4 30.4 4.8 -13.2376
853 1 32 32 3.2 -11.7385
822 3 33.6 30.4 4.8 -11.2227
855 4 35.2 32 3.2 -13.3696
824 3 36.8 30.4 4.8 -11.3492
857 4 38.4 32 3.2 -13.3902
826 3 40 30.4 4.8 -11.4511
859 4 41.6 32 3.2 -13.3844
828 3 43.2 30.4 4.8 -11.3417
861 1 44.8 32 3.2 -11.8555
830 3 46.4 30.4 4.8 -11.3075
863 4 48 32 3.2 -13.3101
832 3 49.6 30.4 4.8 -11.3091
834 3 1.6 33.6 4.8 -11.2405
865 1 0 35.2 3.2 -11.7841
836 2 4.8 33.6 4.8 -9.81135
867 1 3.2 35.2 3.2 -11.775
838 2 8 33.6 4.8 -9.91423
869 4 6.4 35.2 3.2 -13.3449
840 2 11.2 33.6 4.8 -9.81657
871 2 9.6 35.2 3.2 -9.84709
842 2 14.4 33.6 4.8 -9.81258
873 4 12.8 35.2 3.2 -13.261
844 3 17.6 33.6 4.8 -11.2372
875 4 16 35.2 3.2 -13.2994
846 3 20.8 33.6 4.8 -11.2351
877 4 19.2 35.2 3.2 -13.3356
848 3 24 33.6 4.8 -11.2661
879 4 22.4 35.2 3.2 -13.4068
881 4 25.6 35.2 3.2 -13.3492
850 3 27.2 33.6 4.8 -11.2887
883 4 28.8 35.2 3.2 -13.4056
852 4 30.4 33.6 4.8 -13.2409
885 2 32 35.2 3.2 -9.82739
854 2 33.6 33.6 4.8 -9.79088
887 2 35.2 35.2 3.2 -9.86632
856 4 36.8 33.6 4.8 -13.3474
889 4 38.4 35.2 3.2 -13.3193
858 3 40 33.6 4.8 -11.277
891 4 41.6 35.2 3.2 -13.3193
860 3 43.2 33.6 4.8 -11.3021
893 1 44.8 35.2 3.2 -11.7401
862 3 46.4 33.6 4.8 -11.235
895 1 48 35.2 3.2 -11.7876
864 3 49.6 33.6 4.8 -11.2397
866 3 1.6 36.8 4.8 -11.2001
897 1 0 38.4 3.2 -11.828
868 2 4.8 36.8 4.8 -9.84087
899 4 3.2 38.4 3.2 -13.2815
870 3 8 36.8 4.8 -11.2891
901 1 6.4 38.4 3.2 -11.8287
872 2 11.2 36.8 4.8 -9.84681
903 1 9.6 38.4 3.2 -11.7648
874 2 14.4 36.8 4.8 -9.84676
905 1 12.8 38.4 3.2 -11.7178
876 3 17.6 36.8 4.8 -11.2703
907 2 16 38.4 3.2 -9.82648
878 4 20.8 36.8 4.8 -13.305
909 2 19.2 38.4 3.2 -9.896
880 2 24 36.8 4.8 -9.84155
911 2 22.4 38.4 3.2 -9.84657
913 2 25.6 38.4 3.2 -9.8596
882 2 27.2 36.8 4.8 -9.86631
915 2 28.8 38.4 3.2 -9.81469
884 2 30.4 36.8 4.8 -9.86106
917 2 32 38.4 3.2 -9.84186
886 4 33.6 36.8 4.8 -13.3192
919 3 35.2 38.4 3.2 -11.2218
888 4 36.8 36.8 4.8 -13.3454
921 3 38.4 38.4 3.2 -11.3172
890 2 40 36.8 4.8 -9.88224
923 4 41.6 38.4 3.2 -13.3307
892 2 43.2 36.8 4.8 -9.81051
925 1 44.8 38.4 3.2 -11.673
894 2 46.4 36.8 4.8 -9.7144
927 1 48 38.4 3.2 -11.7675
896 3 49.6 36.8 4.8 -11.2045
898 3 1.6 40 4.8 -11.2742
929 1 0 41.6 3.2 -11.7768
900 3 4.8 40 4.8 -11.2705
931 1 3.2 41.6 3.2 -11.7547
902 3 8 40 4.8 -11.3025
933 4 6.4 41.6 3.2 -13.3534
904 2 11.2 40 4.8 -9.80803
935 1 9.6 41.6 3.2 -11.7374
906 4 14.4 40 4.8 -13.3264
937 2 12.8 41.6 3.2 -9.70164
908 4 17.6 40 4.8 -13.3696
939 4 16 41.6 3.2 -13.2095
910 2 20.8 40 4.8 -9.83462
941 4 19.2 41.6 3.2 -13.2336
912 2 24 40 4.8 -9.84992
943 4 22.4 41.6 3.2 -13.3457
945 3 25.6 41.6 3.2 -11.2886
914 4 27.2 40 4.8 -13.313
947 2 28.8 41.6 3.2 -9.8125
916 4 30.4 40 4.8 -13.2967
949 3 32 41.6 3.2 -11.2341
918 1 33.6 40 4.8 -11.7751
951 2 35.2 41.6 3.2 -9.74898
920 1 36.8 40 4.8 -11.754
953 3 38.4 41.6 3.2 -11.2341
922 1 40 40 4.8 -11.7669
955 3 41.6 41.6 3.2 -11.2587
924 2 43.2 40 4.8 -9.83421
957 2 44.8 41.6 3.2 -9.86356
926 2 46.4 40 4.8 -9.75969
959 4 48 41.6 3.2 -13.2946
928 3 49.6 40 4.8 -11.2716
930 2 1.6 43.2 4.8 -9.78999
961 2 0 44.8 3.2 -9.79155
932 2 4.8 43.2 4.8 -9.81444
963 2 3.2 44.8 3.2 -9.81991
934 2 8 43.2 4.8 -9.84007
965 2 6.4 44.8 3.2 -9.83986
936 4 11.2 43.2 4.8 -13.2609
967 4 9.6 44.8 3.2 -13.2205
938 1 14.4 43.2 4.8 -11.7281
969 2 12.8 44.8 3.2 -9.73252
940 1 17.6 43.2 4.8 -11.7295
971 3 16 44.8 3.2 -11.1528
942 4 20.8 43.2 4.8 -13.3223
973 2 19.2 44.8 3.2 -9.7902
944 4 24 43.2 4.8 -13.352
975 3 22.4 44.8 3.2 -11.1919
977 3 25.6 44.8 3.2 -11.2699
946 4 27.2 43.2 4.8 -13.3036
979 3 28.8 44.8 3.2 -11.2405
948 1 30.4 43.2 4.8 -11.8032
981 3 32 44.8 3.2 -11.201
950 1 33.6 43.2 4.8 -11.7544
983 2 35.2 44.8 3.2 -9.71998
952 1 36.8 43.2 4.8 -11.7097
985 3 38.4 44.8 3.2 -11.1616
954 1 40 43.2 4.8 -11.7468
987 2 41.6 44.8 3.2 -9.80495
956 4 43.2 43.2 4.8 -13.344
989 3 44.8 44.8 3.2 -11.2903
958 2 46.4 43.2 4.8 -9.83297
991 4 48 44.8 3.2 -13.3299
960 2 49.6 43.2 4.8 -9.84723
962 4 1.6 46.4 4.8 -13.3287
993 3 0 48 3.2 -11.1975
964 1 4.8 46.4 4.8 -11.8068
995 3 3.2 48 3.2 -11.2372
966 4 8 46.4 4.8 -13.3061
997 3 6.4 48 3.2 -11.2367
968 1 11.2 46.4 4.8 -11.7408
999 3 9.6 48 3.2 -11.2382
970 4 14.4 46.4 4.8 -13.3017
1001 3 12.8 48 3.2 -11.238
972 4 17.6 46.4 4.8 -13.3063
1003 3 16 48 3.2 -11.3048
974 1 20.8 46.4 4.8 -11.8136
1005 2 19.2 48 3.2 -9.71244
976 1 24 46.4 4.8 -11.8147
1007 3 22.4 48 3.2 -11.1654
1009 3 25.6 48 3.2 -11.1648
978 1 27.2 46.4 4.8 -11.7896
1011 3 28.8 48 3.2 -11.2039
980 1 30.4 46.4 4.8 -11.8019
1013 3 32 48 3.2 -11.2423
982 1 33.6 46.4 4.8 -11.7505
1015 3 35.2 48 3.2 -11.2397
984 1 36.8 46.4 4.8 -11.7657
1017 3 38.4 48 3.2 -11.2761
986 1 40 46.4 4.8 -11.7846
1019 3 41.6 48 3.2 -11.2397
988 4 43.2 46.4 4.8 -13.3048
1021 3 44.8 48 3.2 -11.3048
990 1 46.4 46.4 4.8 -11.7662
1023 3 48 48 3.2 -11.1952
992 4 49.6 46.4 4.8 -13.2089
994 1 1.6 49.6 4.8 -11.8146
996 1 4.8 49.6 4.8 -11.8553
998 1 8 49.6 4.8 -11.87
1000 1 11.2 49.6 4.8 -11.8254
1002 1 14.4 49.6 4.8 -11.8553
1004 1 17.6 49.6 4.8 -11.828
1006 1 20.8 49.6 4.8 -11.812
1008 1 24 49.6 4.8 -11.8279
1010 1 27.2 49.6 4.8 -11.7982
1012 1 30.4 49.6 4.8 -11.812
1014 1 33.6 49.6 4.8 -11.8416
1016 1 36.8 49.6 4.8 -11.8555
1018 1 40 49.6 4.8 -11.8554
1020 1 43.2 49.6 4.8 -11.842
1022 1 46.4 49.6 4.8 -11.7671
1024 1 49.6 49.6 4.8 -11.756
1025 3 0 0 6.4 -11.2382
1026 1 1.6 1.6 8 -11.8116
1027 3 3.2 0 6.4 -11.3089
1028 1 4.8 1.6 8 -11.8258
1029 3 6.4 0 6.4 -11.3073
1030 1 8 1.6 8 -11.8256
1031 3 9.6 0 6.4 -11.2734
1032 1 11.2 1.6 8 -11.7722
1033 3 12.8 0 6.4 -11.1578
1034 1 14.4 1.6 8 -11.7715
1035 3 16 0 6.4 -11.2408
1036 1 17.6 1.6 8 -11.8312
1037 3 19.2 0 6.4 -11.2773
1038 4 20.8 1.6 8 -13.3617
1039 3 22.4 0 6.4 -11.2697
1040 4 24 1.6 8 -13.3135
1041 3 25.6 0 6.4 -11.3012
1042 4 27.2 1.6 8 -13.3398
1043 3 28.8 0 6.4 -11.3008
1044 2 30.4 1.6 8 -9.80798
1045 3 32 0 6.4 -11.2748
1046 1 33.6 1.6 8 -11.7555
1047 3 35.2 0 6.4 -11.2403
1048 1 36.8 1.6 8 -11.769
1049 3 38.4 0 6.4 -11.2374
1050 1 40 1.6 8 -11.7973
1051 3 41.6 0 6.4 -11.3097
1052 1 43.2 1.6 8 -11.737
1053 3 44.8 0 6.4 -11.162
1054 4 46.4 1.6 8 -13.2395
1055 3 48 0 6.4 -11.1981
1056 1 49.6 1.6 8 -11.8449
1057 3 0 3.2 6.4 -11.2339
1058 4 1.6 4.8 8 -13.2384
1059 3 3.2 3.2 6.4 -11.2362
1060 1 4.8 4.8 8 -11.7064
1061 3 6.4 3.2 6.4 -11.2702
1062 1 8 4.8 8 -11.8096
1063 3 9.6 3.2 6.4 -11.2359
1064 4 11.2 4.8 8 -13.2528
1065 2 12.8 3.2 6.4 -9.77891
1066 4 14.4 4.8 8 -13.3175
1067 3 16 3.2 6.4 -11.2999
1068 4 17.6 4.8 8 -13.3489
1069 3 19.2 3.2 6.4 -11.2622
1070 2 20.8 4.8 8 -9.85029
1071 3 22.4 3.2 6.4 -11.3572
1072 4 24 4.8 8 -13.362
1073 3 25.6 3.2 6.4 -11.3551
1074 4 27.2 4.8 8 -13.248
1075 2 28.8 3.2 6.4 -9.86992
1076 2 30.4 4.8 8 -9.81333
1077 2 32 3.2 6.4 -9.78465
1078 1 33.6 4.8 8 -11.7646
1079 3 35.2 3.2 6.4 -11.2715
1080 4 36.8 4.8 8 -13.3
1081 3 38.4 3.2 6.4 -11.2676
1082 4 40 4.8 8 -13.3019
1083 3 41.6 3.2 6.4 -11.2683
1084 1 43.2 4.8 8 -11.7137
1085 4 44.8 3.2 6.4 -13.1186
1086 4 46.4 4.8 8 -13.2554
1087 2 48 3.2 6.4 -9.78131
1088 4 49.6 4.8 8 -13.3259
1089 2 0 6.4 6.4 -9.86883
1090 4 1.6 8 8 -13.297
1091 2 3.2 6.4 6.4 -9.72213
1092 1 4.8 8 8 -11.7369
1093 2 6.4 6.4 6.4 -9.67922
1094 1 8 8 8 -11.7806
1095 2 9.6 6.4 6.4 -9.71496
1096 1 11.2 8 8 -11.7559
1097 2 12.8 6.4 6.4 -9.75335
1098 1 14.4 8 8 -11.7686
1099 3 16 6.4 6.4 -11.2193
1100 1 17.6 8 8 -11.7787
1101 4 19.2 6.4 6.4 -13.3199
1102 4 20.8 8 8 -13.2937
1103 3 22.4 6.4 6.4 -11.2828
1104 4 24 8 8 -13.2449