ITEM: TIMESTEP
0
ITEM: NUMBER OF ATOMS
8192
ITEM: BOX BOUNDS pp pp pp
0.0000000000000000e+00 5.1200000000000003e+01
0.0000000000000000e+00 5.1200000000000003e+01
0.0000000000000000e+00 5.1200000000000003e+01
ITEM: ATOMS id type x y z c_eng
1 3 0 0 0 -11.2397
2 1 1.6 1.6 1.6 -11.8121
3 3 3.2 0 0 -11.2764
4 1 4.8 1.6 1.6 -11.8124
5 3 6.4 0 0 -11.242
6 1 8 1.6 1.6 -11.8417
7 3 9.6 0 0 -11.2036
8 1 11.2 1.6 1.6 -11.8558
9 3 12.8 0 0 -11.2758
10 4 14.4 1.6 1.6 -13.3639
11 3 16 0 0 -11.339
12 1 17.6 1.6 1.6 -11.8731
13 3 19.2 0 0 -11.305
14 4 20.8 1.6 1.6 -13.3389
15 3 22.4 0 0 -11.2729
16 1 24 1.6 1.6 -11.8555
17 3 25.6 0 0 -11.2394
18 1 27.2 1.6 1.6 -11.8416
19 3 28.8 0 0 -11.2417
20 1 30.4 1.6 1.6 -11.8417
21 3 32 0 0 -11.2414
22 1 33.6 1.6 1.6 -11.8417
23 3 35.2 0 0 -11.2414
24 1 36.8 1.6 1.6 -11.8417
25 3 38.4 0 0 -11.2414
26 1 40 1.6 1.6 -11.8415
27 3 41.6 0 0 -11.2753
28 1 43.2 1.6 1.6 -11.8557
29 3 44.8 0 0 -11.3086
30 1 46.4 1.6 1.6 -11.8556
31 3 48 0 0 -11.2759
32 1 49.6 1.6 1.6 -11.8416
33 3 0 3.2 0 -11.242
34 1 1.6 4.8 1.6 -11.7989
35 3 3.2 3.2 0 -11.1655
36 1 4.8 4.8 1.6 -11.7508
37 3 6.4 3.2 0 -11.2042
38 1 8 4.8 1.6 -11.8284
39 3 9.6 3.2 0 -11.242
40 1 11.2 4.8 1.6 -11.8121
41 3 12.8 3.2 0 -11.3089
42 1 14.4 4.8 1.6 -11.8531
43 3 16 3.2 0 -11.3399
44 4 17.6 4.8 1.6 -13.2792
45 2 19.2 3.2 0 -9.7794
46 1 20.8 4.8 1.6 -11.7983
47 3 22.4 3.2 0 -11.2729
48 1 24 4.8 1.6 -11.8418
49 3 25.6 3.2 0 -11.2394
50 1 27.2 4.8 1.6 -11.8415
51 3 28.8 3.2 0 -11.242
52 1 30.4 4.8 1.6 -11.812
53 3 32 3.2 0 -11.2417
54 1 33.6 4.8 1.6 -11.8282
55 3 35.2 3.2 0 -11.2414
56 1 36.8 4.8 1.6 -11.8415
57 3 38.4 3.2 0 -11.2414
58 1 40 4.8 1.6 -11.8417
59 3 41.6 3.2 0 -11.2414
60 1 43.2 4.8 1.6 -11.8557
61 3 44.8 3.2 0 -11.2753
62 4 46.4 4.8 1.6 -13.3656
63 3 48 3.2 0 -11.2753
64 1 49.6 4.8 1.6 -11.8557
65 3 0 6.4 0 -11.2423
66 1 1.6 8 1.6 -11.8259
67 3 3.2 6.4 0 -11.2042
68 1 4.8 8 1.6 -11.7964
69 3 6.4 6.4 0 -11.2397
70 4 8 8 1.6 -13.3586
71 3 9.6 6.4 0 -11.2759
72 1 11.2 8 1.6 -11.8394
73 3 12.8 6.4 0 -11.2376
74 1 14.4 8 1.6 -11.8256
75 3 16 6.4 0 -11.2729
76 1 17.6 8 1.6 -11.8018
77 4 19.2 6.4 0 -13.198
78 4 20.8 8 1.6 -13.2523
79 3 22.4 6.4 0 -11.1959
80 1 24 8 1.6 -11.7995
81 2 25.6 6.4 0 -9.80369
82 4 27.2 8 1.6 -13.3564
83 3 28.8 6.4 0 -11.2005
84 1 30.4 8 1.6 -11.8574
85 3 32 6.4 0 -11.2394
86 4 33.6 8 1.6 -13.3384
87 3 35.2 6.4 0 -11.2759
88 1 36.8 8 1.6 -11.831
89 3 38.4 6.4 0 -11.2417
90 1 40 8 1.6 -11.8119
91 3 41.6 6.4 0 -11.2417
92 1 43.2 8 1.6 -11.8279
93 3 44.8 6.4 0 -11.2759
94 1 46.4 8 1.6 -11.8155
95 3 48 6.4 0 -11.2376
96 1 49.6 8 1.6 -11.8278
97 3 0 9.6 0 -11.2324
98 4 1.6 11.2 1.6 -13.301
99 3 3.2 9.6 0 -11.2408
100 1 4.8 11.2 1.6 -11.7617
101 3 6.4 9.6 0 -11.2725
102 4 8 11.2 1.6 -13.3463
103 3 9.6 9.6 0 -11.3359
104 4 11.2 11.2 1.6 -13.3811
105 3 12.8 9.6 0 -11.3047
106 4 14.4 11.2 1.6 -13.2994
107 3 16 9.6 0 -11.2994
108 1 17.6 11.2 1.6 -11.7544
109 2 19.2 9.6 0 -9.76483
110 1 20.8 11.2 1.6 -11.7176
111 2 22.4 9.6 0 -9.75007
112 1 24 11.2 1.6 -11.6909
113 3 25.6 9.6 0 -11.1574
114 1 27.2 11.2 1.6 -11.8417
115 3 28.8 9.6 0 -11.2744
116 1 30.4 11.2 1.6 -11.7926
117 3 32 9.6 0 -11.1994
118 1 33.6 11.2 1.6 -11.7624
119 3 35.2 9.6 0 -11.2751
120 4 36.8 11.2 1.6 -13.3331
121 3 38.4 9.6 0 -11.2405
122 1 40 11.2 1.6 -11.7633
123 3 41.6 9.6 0 -11.2026
124 1 43.2 11.2 1.6 -11.7697
125 3 44.8 9.6 0 -11.2366
126 4 46.4 11.2 1.6 -13.3699
127 2 48 9.6 0 -9.80633
128 4 49.6 11.2 1.6 -13.3723
129 2 0 12.8 0 -9.84647
130 4 1.6 14.4 1.6 -13.3152
131 2 3.2 12.8 0 -9.791
132 2 4.8 14.4 1.6 -9.86447
133 2 6.4 12.8 0 -9.81219
134 2 8 14.4 1.6 -9.86288
135 2 9.6 12.8 0 -9.86538
136 2 11.2 14.4 1.6 -9.83289
137 4 12.8 12.8 0 -13.3219
138 4 14.4 14.4 1.6 -13.2641
139 2 16 12.8 0 -9.78164
140 1 17.6 14.4 1.6 -11.7002
141 4 19.2 12.8 0 -13.2376
142 2 20.8 14.4 1.6 -9.731
143 2 22.4 12.8 0 -9.70364
144 1 24 14.4 1.6 -11.6593
145 2 25.6 12.8 0 -9.73189
146 4 27.2 14.4 1.6 -13.2923
147 3 28.8 12.8 0 -11.2627
148 4 30.4 14.4 1.6 -13.2535
149 4 32 12.8 0 -13.1181
150 1 33.6 14.4 1.6 -11.6394
151 3 35.2 12.8 0 -11.2264
152 4 36.8 14.4 1.6 -13.2854
153 3 38.4 12.8 0 -11.2658
154 4 40 14.4 1.6 -13.2717
155 2 41.6 12.8 0 -9.752
156 1 43.2 14.4 1.6 -11.7313
157 3 44.8 12.8 0 -11.286
158 3 46.4 14.4 1.6 -11.3319
159 2 48 12.8 0 -9.88274
160 4 49.6 14.4 1.6 -13.4014
161 2 0 16 0 -9.81658
162 3 1.6 17.6 1.6 -11.29
163 4 3.2 16 0 -13.3532
164 3 4.8 17.6 1.6 -11.2623
165 4 6.4 16 0 -13.3515
166 2 8 17.6 1.6 -9.78043
167 1 9.6 16 0 -11.7664
168 2 11.2 17.6 1.6 -9.75709
169 4 12.8 16 0 -13.3215
170 2 14.4 17.6 1.6 -9.82092
171 4 16 16 0 -13.2953
172 1 17.6 17.6 1.6 -11.6087
173 2 19.2 16 0 -9.75483
174 4 20.8 17.6 1.6 -13.2684
175 4 22.4 16 0 -13.2201
176 1 24 17.6 1.6 -11.6653
177 4 25.6 16 0 -13.1644
178 2 27.2 17.6 1.6 -9.7815
179 2 28.8 16 0 -9.79293
180 2 30.4 17.6 1.6 -9.81864
181 4 32 16 0 -13.1578
182 4 33.6 17.6 1.6 -13.1708
183 4 35.2 16 0 -13.1576
184 1 36.8 17.6 1.6 -11.6706
185 3 38.4 16 0 -11.2622
186 4 40 17.6 1.6 -13.2775
187 3 41.6 16 0 -11.1492
188 4 43.2 17.6 1.6 -13.2026
189 4 44.8 16 0 -13.3004
190 4 46.4 17.6 1.6 -13.1997
191 4 48 16 0 -13.3713
192 2 49.6 17.6 1.6 -9.84369
193 1 0 19.2 0 -11.8326
194 3 1.6 20.8 1.6 -11.2359
195 1 3.2 19.2 0 -11.8416
196 3 4.8 20.8 1.6 -11.2708
197 1 6.4 19.2 0 -11.8418
198 3 8 20.8 1.6 -11.1993
199 1 9.6 19.2 0 -11.7803
200 3 11.2 20.8 1.6 -11.2035
201 1 12.8 19.2 0 -11.8305
202 3 14.4 20.8 1.6 -11.3295
203 4 16 19.2 0 -13.2628
204 2 17.6 20.8 1.6 -9.79614
205 4 19.2 19.2 0 -13.2644
206 2 20.8 20.8 1.6 -9.79216
207 4 22.4 19.2 0 -13.2338
208 4 24 20.8 1.6 -13.2957
209 2 25.6 19.2 0 -9.83986
210 4 27.2 20.8 1.6 -13.3406
211 4 28.8 19.2 0 -13.3127
212 2 30.4 20.8 1.6 -9.84468
213 2 32 19.2 0 -9.81786
214 2 33.6 20.8 1.6 -9.87017
215 4 35.2 19.2 0 -13.2435
216 2 36.8 20.8 1.6 -9.82196
217 2 38.4 19.2 0 -9.8089
218 3 40 20.8 1.6 -11.295
219 4 41.6 19.2 0 -13.3136
220 3 43.2 20.8 1.6 -11.1611
221 4 44.8 19.2 0 -13.2571
222 2 46.4 20.8 1.6 -9.78728
223 2 48 19.2 0 -9.75886
224 2 49.6 20.8 1.6 -9.8149
225 1 0 22.4 0 -11.8392
226 3 1.6 24 1.6 -11.2759
227 4 3.2 22.4 0 -13.3839
228 3 4.8 24 1.6 -11.307
229 4 6.4 22.4 0 -13.4049
230 3 8 24 1.6 -11.2758
231 1 9.6 22.4 0 -11.8557
232 3 11.2 24 1.6 -11.2042
233 1 12.8 22.4 0 -11.8553
234 3 14.4 24 1.6 -11.2649
235 4 16 22.4 0 -13.3503
236 4 17.6 24 1.6 -13.3433
237 4 19.2 22.4 0 -13.2501
238 2 20.8 24 1.6 -9.81806
239 4 22.4 22.4 0 -13.2261
240 4 24 24 1.6 -13.2836
241 2 25.6 22.4 0 -9.83393
242 2 27.2 24 1.6 -9.7856
243 4 28.8 22.4 0 -13.3118
244 2 30.4 24 1.6 -9.84613
245 4 32 22.4 0 -13.3427
246 3 33.6 24 1.6 -11.2907
247 1 35.2 22.4 0 -11.7548
248 2 36.8 24 1.6 -9.81417
249 4 38.4 22.4 0 -13.3175
250 3 40 24 1.6 -11.2698
251 1 41.6 22.4 0 -11.8011
252 3 43.2 24 1.6 -11.2051
253 1 44.8 22.4 0 -11.7866
254 3 46.4 24 1.6 -11.2017
255 1 48 22.4 0 -11.8315
256 3 49.6 24 1.6 -11.2397
257 1 0 25.6 0 -11.8415
259 1 3.2 25.6 0 -11.8557
261 1 6.4 25.6 0 -11.8555
263 1 9.6 25.6 0 -11.8415
265 1 12.8 25.6 0 -11.8694
267 4 16 25.6 0 -13.3761
269 4 19.2 25.6 0 -13.3197
271 4 22.4 25.6 0 -13.3054
273 4 25.6 25.6 0 -13.2896
275 4 28.8 25.6 0 -13.2539
277 4 32 25.6 0 -13.2751
279 1 35.2 25.6 0 -11.7228
281 1 38.4 25.6 0 -11.7872
283 1 41.6 25.6 0 -11.7517
285 1 44.8 25.6 0 -11.7702
287 1 48 25.6 0 -11.8122
258 3 1.6 27.2 1.6 -11.2414
289 1 0 28.8 0 -11.8416
260 3 4.8 27.2 1.6 -11.2753
291 1 3.2 28.8 0 -11.8557
262 3 8 27.2 1.6 -11.2756
293 1 6.4 28.8 0 -11.8556
264 3 11.2 27.2 1.6 -11.24
295 1 9.6 28.8 0 -11.828
266 3 14.4 27.2 1.6 -11.2976
297 4 12.8 28.8 0 -13.3999
268 3 17.6 27.2 1.6 -11.3239
299 4 16 28.8 0 -13.3754
270 3 20.8 27.2 1.6 -11.3829
301 1 19.2 28.8 0 -11.8428
272 3 24 27.2 1.6 -11.3169
303 4 22.4 28.8 0 -13.3764
305 4 25.6 28.8 0 -13.3246
274 4 27.2 27.2 1.6 -13.2336
307 1 28.8 28.8 0 -11.7682
276 2 30.4 27.2 1.6 -9.75241
309 1 32 28.8 0 -11.7578
278 3 33.6 27.2 1.6 -11.1922
311 1 35.2 28.8 0 -11.7166
280 2 36.8 27.2 1.6 -9.8388
313 4 38.4 28.8 0 -13.295
282 2 40 27.2 1.6 -9.83871
315 1 41.6 28.8 0 -11.7602
284 3 43.2 27.2 1.6 -11.1533
317 4 44.8 28.8 0 -13.313
286 2 46.4 27.2 1.6 -9.80012
319 1 48 28.8 0 -11.8281
288 3 49.6 27.2 1.6 -11.2033
290 3 1.6 30.4 1.6 -11.2753
321 1 0 32 0 -11.8556
292 3 4.8 30.4 1.6 -11.3081
323 4 3.2 32 0 -13.3399
294 3 8 30.4 1.6 -11.2378
325 1 6.4 32 0 -11.8439
296 2 11.2 30.4 1.6 -9.80474
327 1 9.6 32 0 -11.7983
298 3 14.4 30.4 1.6 -11.265
329 4 12.8 32 0 -13.3287
300 3 17.6 30.4 1.6 -11.2324
331 1 16 32 0 -11.7487
302 3 20.8 30.4 1.6 -11.3662
333 1 19.2 32 0 -11.7842
304 3 24 30.4 1.6 -11.2957
335 4 22.4 32 0 -13.323
337 1 25.6 32 0 -11.8018
306 3 27.2 30.4 1.6 -11.271
339 1 28.8 32 0 -11.8432
308 3 30.4 30.4 1.6 -11.2329
341 4 32 32 0 -13.2706
310 2 33.6 30.4 1.6 -9.78942
343 4 35.2 32 0 -13.3238
312 2 36.8 30.4 1.6 -9.82859
345 2 38.4 32 0 -9.81654
314 4 40 30.4 1.6 -13.2852
347 2 41.6 32 0 -9.73204
316 4 43.2 30.4 1.6 -13.3572
349 4 44.8 32 0 -13.3562
318 3 46.4 30.4 1.6 -11.2676
351 1 48 32 0 -11.8434
320 3 49.6 30.4 1.6 -11.2417
322 3 1.6 33.6 1.6 -11.3081
353 1 0 35.2 0 -11.8694
324 3 4.8 33.6 1.6 -11.2391
355 1 3.2 35.2 0 -11.8422
326 3 8 33.6 1.6 -11.2045
357 1 6.4 35.2 0 -11.8255
328 2 11.2 33.6 1.6 -9.78676
359 1 9.6 35.2 0 -11.8264
330 4 14.4 33.6 1.6 -13.2439
361 4 12.8 35.2 0 -13.2851
332 2 17.6 33.6 1.6 -9.69915
363 1 16 35.2 0 -11.6878
334 2 20.8 33.6 1.6 -9.79276
365 1 19.2 35.2 0 -11.7309
336 2 24 33.6 1.6 -9.84349
367 4 22.4 35.2 0 -13.2363
369 4 25.6 35.2 0 -13.2709
338 3 27.2 33.6 1.6 -11.2271
371 1 28.8 35.2 0 -11.7395
340 2 30.4 33.6 1.6 -9.81963
373 4 32 35.2 0 -13.3328
342 4 33.6 33.6 1.6 -13.3186
375 3 35.2 35.2 0 -11.3102
344 4 36.8 33.6 1.6 -13.3749
377 3 38.4 35.2 0 -11.2491
346 1 40 33.6 1.6 -11.7475
379 4 41.6 35.2 0 -13.216
348 2 43.2 33.6 1.6 -9.78814
381 4 44.8 35.2 0 -13.3195
350 3 46.4 33.6 1.6 -11.3333
383 4 48 35.2 0 -13.3572
352 3 49.6 33.6 1.6 -11.3089
354 3 1.6 36.8 1.6 -11.3084
385 1 0 38.4 0 -11.8283
356 3 4.8 36.8 1.6 -11.3066
387 4 3.2 38.4 0 -13.3826
358 3 8 36.8 1.6 -11.2639
389 4 6.4 38.4 0 -13.3828
360 2 11.2 36.8 1.6 -9.8192
391 2 9.6 38.4 0 -9.80039
362 4 14.4 36.8 1.6 -13.2055
393 4 12.8 38.4 0 -13.3239
364 4 17.6 36.8 1.6 -13.2505
395 4 16 38.4 0 -13.2196
366 4 20.8 36.8 1.6 -13.2837
397 4 19.2 38.4 0 -13.3033
368 2 24 36.8 1.6 -9.78726
399 4 22.4 38.4 0 -13.2626
401 2 25.6 38.4 0 -9.76501
370 4 27.2 36.8 1.6 -13.2673
403 2 28.8 38.4 0 -9.76416
372 4 30.4 36.8 1.6 -13.237
405 3 32 38.4 0 -11.2526
374 4 33.6 36.8 1.6 -13.3412
407 3 35.2 38.4 0 -11.36
376 4 36.8 36.8 1.6 -13.4169
409 3 38.4 38.4 0 -11.3351
378 4 40 36.8 1.6 -13.2885
411 2 41.6 38.4 0 -9.79271
380 4 43.2 36.8 1.6 -13.3188
413 2 44.8 38.4 0 -9.83447
382 3 46.4 36.8 1.6 -11.319
415 4 48 38.4 0 -13.3491
384 3 49.6 36.8 1.6 -11.3362
386 3 1.6 40 1.6 -11.3235
417 4 0 41.6 0 -13.3195
388 2 4.8 40 1.6 -9.86487
419 2 3.2 41.6 0 -9.83448
390 4 8 40 1.6 -13.3021
421 2 6.4 41.6 0 -9.81731
392 1 11.2 40 1.6 -11.7425
423 2 9.6 41.6 0 -9.81921
394 4 14.4 40 1.6 -13.2725
425 2 12.8 41.6 0 -9.78794
396 2 17.6 40 1.6 -9.80601
427 1 16 41.6 0 -11.7028
398 4 20.8 40 1.6 -13.3245
429 4 19.2 41.6 0 -13.2609
400 4 24 40 1.6 -13.2752
431 3 22.4 41.6 0 -11.2525
433 2 25.6 41.6 0 -9.72006
402 1 27.2 40 1.6 -11.7464
435 3 28.8 41.6 0 -11.2032
404 1 30.4 40 1.6 -11.8013
437 3 32 41.6 0 -11.3081
406 4 33.6 40 1.6 -13.3494
439 3 35.2 41.6 0 -11.2717
408 1 36.8 40 1.6 -11.8305
441 3 38.4 41.6 0 -11.2042
410 1 40 40 1.6 -11.8155
443 3 41.6 41.6 0 -11.2387
412 4 43.2 40 1.6 -13.2653
445 2 44.8 41.6 0 -9.81153
414 2 46.4 40 1.6 -9.86798
447 4 48 41.6 0 -13.2946
416 2 49.6 40 1.6 -9.86689
418 4 1.6 43.2 1.6 -13.2861
449 2 0 44.8 0 -9.79514
420 1 4.8 43.2 1.6 -11.6882
451 4 3.2 44.8 0 -13.245
422 1 8 43.2 1.6 -11.7718
453 3 6.4 44.8 0 -11.1894
424 1 11.2 43.2 1.6 -11.7773
455 3 9.6 44.8 0 -11.2627
426 2 14.4 43.2 1.6 -9.77542
457 4 12.8 44.8 0 -13.2845
428 4 17.6 43.2 1.6 -13.1981
459 2 16 44.8 0 -9.79172
430 4 20.8 43.2 1.6 -13.3495
461 2 19.2 44.8 0 -9.81579
432 1 24 43.2 1.6 -11.8124
463 3 22.4 44.8 0 -11.331
465 3 25.6 44.8 0 -11.1611
434 1 27.2 43.2 1.6 -11.7998
467 3 28.8 44.8 0 -11.2423
436 1 30.4 43.2 1.6 -11.8413
469 3 32 44.8 0 -11.2414
438 1 33.6 43.2 1.6 -11.8437
471 3 35.2 44.8 0 -11.242
440 1 36.8 43.2 1.6 -11.8019
473 3 38.4 44.8 0 -11.2039
442 1 40 43.2 1.6 -11.7807
475 3 41.6 44.8 0 -11.2039
444 1 43.2 43.2 1.6 -11.7571
477 3 44.8 44.8 0 -11.2408
446 1 46.4 43.2 1.6 -11.7589
479 3 48 44.8 0 -11.2014
448 2 49.6 43.2 1.6 -9.79794
450 4 1.6 46.4 1.6 -13.1999
481 2 0 48 0 -9.74838
452 1 4.8 46.4 1.6 -11.7108
483 3 3.2 48 0 -11.1944
454 1 8 46.4 1.6 -11.7974
485 3 6.4 48 0 -11.277
456 1 11.2 46.4 1.6 -11.7426
487 3 9.6 48 0 -11.2708
458 4 14.4 46.4 1.6 -13.2767
489 3 12.8 48 0 -11.2342
460 1 17.6 46.4 1.6 -11.7722
491 3 16 48 0 -11.3364
462 1 20.8 46.4 1.6 -11.7864
493 3 19.2 48 0 -11.2678
464 1 24 46.4 1.6 -11.7982
495 2 22.4 48 0 -9.80591
497 3 25.6 48 0 -11.2734
466 1 27.2 46.4 1.6 -11.8122
499 3 28.8 48 0 -11.2414
468 1 30.4 46.4 1.6 -11.8417
501 3 32 48 0 -11.2414
470 1 33.6 46.4 1.6 -11.8416
503 3 35.2 48 0 -11.2414
472 1 36.8 46.4 1.6 -11.8123
505 3 38.4 48 0 -11.2417
474 1 40 46.4 1.6 -11.7807
507 3 41.6 48 0 -11.2756
476 1 43.2 46.4 1.6 -11.8416
509 3 44.8 48 0 -11.3089
478 1 46.4 46.4 1.6 -11.7975
511 3 48 48 0 -11.1993
480 1 49.6 46.4 1.6 -11.7186
482 1 1.6 49.6 1.6 -11.7695
484 1 4.8 49.6 1.6 -11.8121
486 1 8 49.6 1.6 -11.8123
488 1 11.2 49.6 1.6 -11.7806
490 1 14.4 49.6 1.6 -11.8422
492 1 17.6 49.6 1.6 -11.8552
494 1 20.8 49.6 1.6 -11.8394
496 1 24 49.6 1.6 -11.828
498 1 27.2 49.6 1.6 -11.8416
500 1 30.4 49.6 1.6 -11.8417
502 1 33.6 49.6 1.6 -11.8417
504 1 36.8 49.6 1.6 -11.8416
506 1 40 49.6 1.6 -11.8698
508 4 43.2 49.6 1.6 -13.3639
510 1 46.4 49.6 1.6 -11.8396
512 1 49.6 49.6 1.6 -11.7137
513 3 0 0 3.2 -11.2034
514 1 1.6 1.6 4.8 -11.8423
515 3 3.2 0 3.2 -11.2022
516 1 4.8 1.6 4.8 -11.8121
517 3 6.4 0 3.2 -11.2426
518 1 8 1.6 4.8 -11.8416
519 3 9.6 0 3.2 -11.2039
520 1 11.2 1.6 4.8 -11.8414
521 3 12.8 0 3.2 -11.2384
522 1 14.4 1.6 4.8 -11.842
523 3 16 0 3.2 -11.2378
524 1 17.6 1.6 4.8 -11.8278
525 3 19.2 0 3.2 -11.3091
526 1 20.8 1.6 4.8 -11.8395
527 3 22.4 0 3.2 -11.3091
528 1 24 1.6 4.8 -11.8279
529 3 25.6 0 3.2 -11.2414
530 1 27.2 1.6 4.8 -11.8556
531 3 28.8 0 3.2 -11.2414
532 1 30.4 1.6 4.8 -11.8122
533 3 32 0 3.2 -11.2417
534 1 33.6 1.6 4.8 -11.8124
535 3 35.2 0 3.2 -11.2414
536 1 36.8 1.6 4.8 -11.8415
537 3 38.4 0 3.2 -11.2753
538 1 40 1.6 4.8 -11.8557
539 3 41.6 0 3.2 -11.3086
540 1 43.2 1.6 4.8 -11.8414
541 3 44.8 0 3.2 -11.2761
542 1 46.4 1.6 4.8 -11.781
543 3 48 0 3.2 -11.1648
544 1 49.6 1.6 4.8 -11.7809
545 3 0 3.2 3.2 -11.2397
546 4 1.6 4.8 4.8 -13.3112
547 2 3.2 3.2 3.2 -9.74209
548 1 4.8 4.8 4.8 -11.7685
549 3 6.4 3.2 3.2 -11.1639
550 1 8 4.8 4.8 -11.8123
551 3 9.6 3.2 3.2 -11.242
552 1 11.2 4.8 4.8 -11.781
553 3 12.8 3.2 3.2 -11.2378
554 1 14.4 4.8 4.8 -11.7961
555 3 16 3.2 3.2 -11.3094
556 1 17.6 4.8 4.8 -11.8555
557 3 19.2 3.2 3.2 -11.2751
558 1 20.8 4.8 4.8 -11.7982
559 3 22.4 3.2 3.2 -11.2726
560 4 24 4.8 4.8 -13.3751
561 3 25.6 3.2 3.2 -11.3073
562 4 27.2 4.8 4.8 -13.421
563 3 28.8 3.2 3.2 -11.2759
564 1 30.4 4.8 4.8 -11.7971
565 3 32 3.2 3.2 -11.1639
566 1 33.6 4.8 4.8 -11.7408
567 3 35.2 3.2 3.2 -11.2423
568 1 36.8 4.8 4.8 -11.7985
569 3 38.4 3.2 3.2 -11.2417
570 1 40 4.8 4.8 -11.7982
571 3 41.6 3.2 3.2 -11.2417
572 1 43.2 4.8 4.8 -11.816
573 3 44.8 3.2 3.2 -11.2759
574 1 46.4 4.8 4.8 -11.7632
575 3 48 3.2 3.2 -11.2381
576 1 49.6 4.8 4.8 -11.7942
577 3 0 6.4 3.2 -11.2397
578 1 1.6 8 4.8 -11.8151
579 2 3.2 6.4 3.2 -9.71244
580 1 4.8 8 4.8 -11.7527
581 2 6.4 6.4 3.2 -9.74076
582 1 8 8 4.8 -11.7984
583 3 9.6 6.4 3.2 -11.2017
584 1 11.2 8 4.8 -11.7525
585 2 12.8 6.4 3.2 -9.7066
586 1 14.4 8 4.8 -11.7961
587 3 16 6.4 3.2 -11.2384
588 1 17.6 8 4.8 -11.8694
589 3 19.2 6.4 3.2 -11.2397
590 1 20.8 8 4.8 -11.7682
591 3 22.4 6.4 3.2 -11.2711
592 4 24 8 4.8 -13.3413
593 3 25.6 6.4 3.2 -11.3617
594 4 27.2 8 4.8 -13.4401
595 3 28.8 6.4 3.2 -11.3341
596 4 30.4 8 4.8 -13.3811
597 2 32 6.4 3.2 -9.80495
598 4 33.6 8 4.8 -13.2878
599 3 35.2 6.4 3.2 -11.2341
600 4 36.8 8 4.8 -13.2382
601 3 38.4 6.4 3.2 -11.2029
602 1 40 8 4.8 -11.741
603 3 41.6 6.4 3.2 -11.2408
604 4 43.2 8 4.8 -13.245
605 3 44.8 6.4 3.2 -11.2357
606 1 46.4 8 4.8 -11.7368
607 3 48 6.4 3.2 -11.2392
608 1 49.6 8 4.8 -11.7632
609 3 0 9.6 3.2 -11.307
610 1 1.6 11.2 4.8 -11.7751
611 3 3.2 9.6 3.2 -11.1616
612 1 4.8 11.2 4.8 -11.727
613 3 6.4 9.6 3.2 -11.1986
614 1 8 11.2 4.8 -11.753
615 3 9.6 9.6 3.2 -11.3024
616 1 11.2 11.2 4.8 -11.8287
617 3 12.8 9.6 3.2 -11.2361
618 1 14.4 11.2 4.8 -11.7846
619 3 16 9.6 3.2 -11.2756
620 4 17.6 11.2 4.8 -13.3525
621 3 19.2 9.6 3.2 -11.2701
622 4 20.8 11.2 4.8 -13.3224
623 2 22.4 9.6 3.2 -9.79217
624 2 24 11.2 4.8 -9.76613
625 3 25.6 9.6 3.2 -11.327
626 4 27.2 11.2 4.8 -13.354
627 3 28.8 9.6 3.2 -11.3632
628 2 30.4 11.2 4.8 -9.81083
629 3 32 9.6 3.2 -11.2925
630 4 33.6 11.2 4.8 -13.3245
631 2 35.2 9.6 3.2 -9.87154
632 2 36.8 11.2 4.8 -9.83931
633 2 38.4 9.6 3.2 -9.78939
634 2 40 11.2 4.8 -9.78628
635 3 41.6 9.6 3.2 -11.1957
636 4 43.2 11.2 4.8 -13.3319
637 2 44.8 9.6 3.2 -9.81279
638 4 46.4 11.2 4.8 -13.2794
639 3 48 9.6 3.2 -11.2269
640 4 49.6 11.2 4.8 -13.3228
641 2 0 12.8 3.2 -9.86919
642 4 1.6 14.4 4.8 -13.3455
643 2 3.2 12.8 3.2 -9.79243
644 2 4.8 14.4 4.8 -9.80173
645 4 6.4 12.8 3.2 -13.2741
646 4 8 14.4 4.8 -13.3624
647 3 9.6 12.8 3.2 -11.2832
648 4 11.2 14.4 4.8 -13.3585
649 2 12.8 12.8 3.2 -9.81386
650 1 14.4 14.4 4.8 -11.7739
651 2 16 12.8 3.2 -9.75942
652 4 17.6 14.4 4.8 -13.2943
653 3 19.2 12.8 3.2 -11.2249
654 1 20.8 14.4 4.8 -11.8021
655 2 22.4 12.8 3.2 -9.79421
656 1 24 14.4 4.8 -11.7326
657 2 25.6 12.8 3.2 -9.79007
658 2 27.2 14.4 4.8 -9.77977
659 3 28.8 12.8 3.2 -11.2817
660 2 30.4 14.4 4.8 -9.86531
661 2 32 12.8 3.2 -9.81876
662 2 33.6 14.4 4.8 -9.78814
663 3 35.2 12.8 3.2 -11.2427
664 2 36.8 14.4 4.8 -9.84241
665 4 38.4 12.8 3.2 -13.3251
666 2 40 14.4 4.8 -9.81887
667 2 41.6 12.8 3.2 -9.75781
668 2 43.2 14.4 4.8 -9.8422
669 2 44.8 12.8 3.2 -9.89364
670 3 46.4 14.4 4.8 -11.4084
671 3 48 12.8 3.2 -11.378
672 2 49.6 14.4 4.8 -9.8763
673 2 0 16 3.2 -9.85031
674 2 1.6 17.6 4.8 -9.82273
675 4 3.2 16 3.2 -13.3512
676 4 4.8 17.6 4.8 -13.3089
677 2 6.4 16 3.2 -9.79268
678 2 8 17.6 4.8 -9.75838
679 4 9.6 16 3.2 -13.3264
680 4 11.2 17.6 4.8 -13.3396
681 2 12.8 16 3.2 -9.84215
682 2 14.4 17.6 4.8 -9.84449
683 2 16 16 3.2 -9.73031
684 1 17.6 17.6 4.8 -11.752
685 2 19.2 16 3.2 -9.78235
686 1 20.8 17.6 4.8 -11.7753
687 3 22.4 16 3.2 -11.1102
688 4 24 17.6 4.8 -13.2994
689 2 25.6 16 3.2 -9.79034
690 4 27.2 17.6 4.8 -13.3995
691 4 28.8 16 3.2 -13.3741
692 2 30.4 17.6 4.8 -9.86843
693 2 32 16 3.2 -9.77948
694 2 33.6 17.6 4.8 -9.84692
695 4 35.2 16 3.2 -13.2512
696 3 36.8 17.6 4.8 -11.1889
697 2 38.4 16 3.2 -9.80148
698 3 40 17.6 4.8 -11.2695
699 4 41.6 16 3.2 -13.3106
700 3 43.2 17.6 4.8 -11.2318
701 2 44.8 16 3.2 -9.80538
702 2 46.4 17.6 4.8 -9.80949
703 4 48 16 3.2 -13.3803
704 2 49.6 17.6 4.8 -9.81641
705 4 0 19.2 3.2 -13.2725
706 2 1.6 20.8 4.8 -9.78795
707 1 3.2 19.2 3.2 -11.7609
708 2 4.8 20.8 4.8 -9.72745
709 1 6.4 19.2 3.2 -11.7161
710 2 8 20.8 4.8 -9.8098
711 1 9.6 19.2 3.2 -11.705
712 2 11.2 20.8 4.8 -9.7877
713 4 12.8 19.2 3.2 -13.2967
714 2 14.4 20.8 4.8 -9.86154
715 4 16 19.2 3.2 -13.3106
716 4 17.6 20.8 4.8 -13.3064
717 2 19.2 19.2 3.2 -9.72959
718 4 20.8 20.8 4.8 -13.2745
719 2 22.4 19.2 3.2 -9.79282
720 1 24 20.8 4.8 -11.8283
721 3 25.6 19.2 3.2 -11.2914
722 4 27.2 20.8 4.8 -13.3205
723 4 28.8 19.2 3.2 -13.2836
724 2 30.4 20.8 4.8 -9.82234
725 4 32 19.2 3.2 -13.3442
726 2 33.6 20.8 4.8 -9.87064
727 2 35.2 19.2 3.2 -9.78237
728 4 36.8 20.8 4.8 -13.2739
729 4 38.4 19.2 3.2 -13.3421
730 3 40 20.8 4.8 -11.2728
731 1 41.6 19.2 3.2 -11.7679
732 3 43.2 20.8 4.8 -11.2051
733 1 44.8 19.2 3.2 -11.7155
734 3 46.4 20.8 4.8 -11.1619
735 1 48 19.2 3.2 -11.7188
736 3 49.6 20.8 4.8 -11.2353
737 1 0 22.4 3.2 -11.8324
738 3 1.6 24 4.8 -11.2021
739 1 3.2 22.4 3.2 -11.7935
740 3 4.8 24 4.8 -11.2405
741 1 6.4 22.4 3.2 -11.8119
742 3 8 24 4.8 -11.2343
743 1 9.6 22.4 3.2 -11.7873
744 2 11.2 24 4.8 -9.81205
745 1 12.8 22.4 3.2 -11.7764
746 4 14.4 24 4.8 -13.2935
747 2 16 22.4 3.2 -9.79046
748 2 17.6 24 4.8 -9.78368
749 4 19.2 22.4 3.2 -13.2814
750 4 20.8 24 4.8 -13.3167
751 4 22.4 22.4 3.2 -13.2557
752 4 24 24 4.8 -13.2958
753 3 25.6 22.4 3.2 -11.2486
754 4 27.2 24 4.8 -13.3296
755 4 28.8 22.4 3.2 -13.2888
756 3 30.4 24 4.8 -11.3213
757 4 32 22.4 3.2 -13.3677
758 3 33.6 24 4.8 -11.3883
759 2 35.2 22.4 3.2 -9.84701
760 2 36.8 24 4.8 -9.8434
761 4 38.4 22.4 3.2 -13.3807
762 3 40 24 4.8 -11.2702
763 1 41.6 22.4 3.2 -11.8553
764 3 43.2 24 4.8 -11.1642
765 1 44.8 22.4 3.2 -11.8282
766 3 46.4 24 4.8 -11.2767
767 4 48 22.4 3.2 -13.3096
768 3 49.6 24 4.8 -11.3094
769 1 0 25.6 3.2 -11.8415
771 1 3.2 25.6 3.2 -11.8415
773 1 6.4 25.6 3.2 -11.8556
775 1 9.6 25.6 3.2 -11.8119
777 1 12.8 25.6 3.2 -11.7437
779 4 16 25.6 3.2 -13.3363
781 2 19.2 25.6 3.2 -9.83868
783 2 22.4 25.6 3.2 -9.83715
785 4 25.6 25.6 3.2 -13.3333
787 4 28.8 25.6 3.2 -13.2689
789 1 32 25.6 3.2 -11.8564
791 4 35.2 25.6 3.2 -13.3753
793 4 38.4 25.6 3.2 -13.3466
795 1 41.6 25.6 3.2 -11.8322
797 1 44.8 25.6 3.2 -11.8018
799 1 48 25.6 3.2 -11.826
770 3 1.6 27.2 4.8 -11.2417
801 1 0 28.8 3.2 -11.8417
772 3 4.8 27.2 4.8 -11.2753
803 1 3.2 28.8 3.2 -11.8557
774 3 8 27.2 4.8 -11.2758
805 4 6.4 28.8 3.2 -13.3656
776 3 11.2 27.2 4.8 -11.2021
807 1 9.6 28.8 3.2 -11.8258
778 4 14.4 27.2 4.8 -13.1973
809 1 12.8 28.8 3.2 -11.7797
780 4 17.6 27.2 4.8 -13.2791
811 1 16 28.8 3.2 -11.752
782 2 20.8 27.2 4.8 -9.86926
813 4 19.2 28.8 3.2 -13.3484
784 2 24 27.2 4.8 -9.81789
815 1 22.4 28.8 3.2 -11.8596
817 4 25.6 28.8 3.2 -13.3071
786 3 27.2 27.2 4.8 -11.1893
819 1 28.8 28.8 3.2 -11.7954
788 3 30.4 27.2 4.8 -11.3014
821 1 32 28.8 3.2 -11.8006
790 3 33.6 27.2 4.8 -11.3328
823 4 35.2 28.8 3.2 -13.3518
792 3 36.8 27.2 4.8 -11.2872
825 2 38.4 28.8 3.2 -9.88979
794 3 40 27.2 4.8 -11.3171
827 2 41.6 28.8 3.2 -9.84004
796 2 43.2 27.2 4.8 -9.85973
829 4 44.8 28.8 3.2 -13.3393
798 3 46.4 27.2 4.8 -11.2018
831 1 48 28.8 3.2 -11.8281
800 3 49.6 27.2 4.8 -11.2417
802 3 1.6 30.4 4.8 -11.2414
833 1 0 32 3.2 -11.8557
804 3 4.8 30.4 4.8 -11.2753
835 1 3.2 32 3.2 -11.8555
806 3 8 30.4 4.8 -11.3081
837 1 6.4 32 3.2 -11.8556
808 3 11.2 30.4 4.8 -11.2741
839 1 9.6 32 3.2 -11.8112
810 3 14.4 30.4 4.8 -11.194
841 4 12.8 32 3.2 -13.3348
812 2 17.6 30.4 4.8 -9.73692
843 1 16 32 3.2 -11.7489
814 3 20.8 30.4 4.8 -11.2566
845 4 19.2 32 3.2 -13.2573
816 2 24 30.4 4.8 -9.83782
847 4 22.4 32 3.2 -13.3309
849 1 25.6 32 3.2 -11.8211
818 3 27.2 30.4 4.8 -11.2699
851 4 28.8 32 3.2 -13.3608
820 3 30.4 30.4 4.8 -11.3004
853 4 32 32 3.2 -13.294
822 2 33.6 30.4 4.8 -9.84533
855 2 35.2 32 3.2 -9.84368
824 4 36.8 30.4 4.8 -13.3555
857 3 38.4 32 3.2 -11.2933
826 4 40 30.4 4.8 -13.3814
859 2 41.6 32 3.2 -9.81902
828 2 43.2 30.4 4.8 -9.81584
861 4 44.8 32 3.2 -13.3556
830 3 46.4 30.4 4.8 -11.274
863 1 48 32 3.2 -11.8553
832 3 49.6 30.4 4.8 -11.2414
834 3 1.6 33.6 4.8 -11.3086
865 4 0 35.2 3.2 -13.3639
836 3 4.8 33.6 4.8 -11.2759
867 1 3.2 35.2 3.2 -11.8695
838 3 8 33.6 4.8 -11.2722
869 1 6.4 35.2 3.2 -11.8278
840 3 11.2 33.6 4.8 -11.2627
871 1 9.6 35.2 3.2 -11.7622
842 3 14.4 33.6 4.8 -11.2497
873 2 12.8 35.2 3.2 -9.8288
844 4 17.6 33.6 4.8 -13.2428
875 2 16 35.2 3.2 -9.78932
846 4 20.8 33.6 4.8 -13.2825
877 2 19.2 35.2 3.2 -9.81839
848 3 24 33.6 4.8 -11.1795
879 4 22.4 35.2 3.2 -13.3192
881 4 25.6 35.2 3.2 -13.326
850 2 27.2 33.6 4.8 -9.81604
883 2 28.8 35.2 3.2 -9.78238
852 4 30.4 33.6 4.8 -13.2577
885 2 32 35.2 3.2 -9.76471
854 4 33.6 33.6 4.8 -13.2651
887 3 35.2 35.2 3.2 -11.2972
856 1 36.8 33.6 4.8 -11.845
889 3 38.4 35.2 3.2 -11.3043
858 1 40 33.6 4.8 -11.7771
891 2 41.6 35.2 3.2 -9.79014
860 2 43.2 33.6 4.8 -9.84421
893 4 44.8 35.2 3.2 -13.354
862 3 46.4 33.6 4.8 -11.2732
895 1 48 35.2 3.2 -11.8975
864 3 49.6 33.6 4.8 -11.2753
866 3 1.6 36.8 4.8 -11.3094
897 1 0 38.4 3.2 -11.8569
868 3 4.8 36.8 4.8 -11.2338
899 1 3.2 38.4 3.2 -11.8452
870 2 8 36.8 4.8 -9.81665
901 4 6.4 38.4 3.2 -13.2977
872 4 11.2 36.8 4.8 -13.3111
903 4 9.6 38.4 3.2 -13.3115
874 4 14.4 36.8 4.8 -13.2989
905 3 12.8 38.4 3.2 -11.2231
876 4 17.6 36.8 4.8 -13.3666
907 2 16 38.4 3.2 -9.84849
878 2 20.8 36.8 4.8 -9.81827
909 3 19.2 38.4 3.2 -11.2746
880 2 24 36.8 4.8 -9.86344
911 2 22.4 38.4 3.2 -9.84536
913 2 25.6 38.4 3.2 -9.78729
882 4 27.2 36.8 4.8 -13.2942
915 2 28.8 38.4 3.2 -9.75904
884 1 30.4 36.8 4.8 -11.7469
917 2 32 38.4 3.2 -9.81613
886 1 33.6 36.8 4.8 -11.7439
919 2 35.2 38.4 3.2 -9.8149
888 1 36.8 36.8 4.8 -11.8285
921 3 38.4 38.4 3.2 -11.2706
890 1 40 36.8 4.8 -11.7604
923 2 41.6 38.4 3.2 -9.76404
892 2 43.2 36.8 4.8 -9.79062
925 4 44.8 38.4 3.2 -13.3172
894 3 46.4 36.8 4.8 -11.3052
927 4 48 38.4 3.2 -13.4038
896 3 49.6 36.8 4.8 -11.3091
898 3 1.6 40 4.8 -11.2639
929 4 0 41.6 3.2 -13.4006
900 2 4.8 40 4.8 -9.81853
931 2 3.2 41.6 3.2 -9.79545
902 4 8 40 4.8 -13.2987
933 2 6.4 41.6 3.2 -9.79056
904 1 11.2 40 4.8 -11.8179
935 3 9.6 41.6 3.2 -11.1894
906 1 14.4 40 4.8 -11.803
937 3 12.8 41.6 3.2 -11.2703
908 4 17.6 40 4.8 -13.2645
939 2 16 41.6 3.2 -9.79339
910 1 20.8 40 4.8 -11.747
941 2 19.2 41.6 3.2 -9.81986
912 1 24 40 4.8 -11.7444
943 3 22.4 41.6 3.2 -11.2644
945 3 25.6 41.6 3.2 -11.1986
914 1 27.2 40 4.8 -11.7973
947 3 28.8 41.6 3.2 -11.2744
916 4 30.4 40 4.8 -13.3281
949 3 32 41.6 3.2 -11.2683
918 4 33.6 40 4.8 -13.2887
951 2 35.2 41.6 3.2 -9.81575
920 4 36.8 40 4.8 -13.3009
953 3 38.4 41.6 3.2 -11.1997
922 1 40 40 4.8 -11.7583
955 3 41.6 41.6 3.2 -11.1587
924 4 43.2 40 4.8 -13.2354
957 4 44.8 41.6 3.2 -13.293
926 3 46.4 40 4.8 -11.2942
959 2 48 41.6 3.2 -9.84019
928 3 49.6 40 4.8 -11.3301
930 4 1.6 43.2 4.8 -13.3229
961 2 0 44.8 3.2 -9.83484
932 1 4.8 43.2 4.8 -11.7205
963 2 3.2 44.8 3.2 -9.69287
934 4 8 43.2 4.8 -13.2968
965 2 6.4 44.8 3.2 -9.71336
936 4 11.2 43.2 4.8 -13.3537
967 3 9.6 44.8 3.2 -11.2314
938 1 14.4 43.2 4.8 -11.7878
969 2 12.8 44.8 3.2 -9.76445
940 1 17.6 43.2 4.8 -11.7468
971 2 16 44.8 3.2 -9.75487
942 4 20.8 43.2 4.8 -13.2759
973 2 19.2 44.8 3.2 -9.75086
944 1 24 43.2 4.8 -11.8141
975 3 22.4 44.8 3.2 -11.2358
977 2 25.6 44.8 3.2 -9.7689
946 4 27.2 43.2 4.8 -13.3399
979 3 28.8 44.8 3.2 -11.2394
948 1 30.4 43.2 4.8 -11.8268
981 3 32 44.8 3.2 -11.24
950 4 33.6 43.2 4.8 -13.3054
983 3 35.2 44.8 3.2 -11.199
952 4 36.8 43.2 4.8 -13.2745
985 2 38.4 44.8 3.2 -9.71281
954 1 40 43.2 4.8 -11.714
987 2 41.6 44.8 3.2 -9.7457
956 4 43.2 43.2 4.8 -13.2992
989 3 44.8 44.8 3.2 -11.2246
958 2 46.4 43.2 4.8 -9.86206
991 2 48 44.8 3.2 -9.88026
960 3 49.6 43.2 4.8 -11.371
962 2 1.6 46.4 4.8 -9.72582
993 4 0 48 3.2 -13.1283
964 1 4.8 46.4 4.8 -11.7042
995 2 3.2 48 3.2 -9.72829
966 1 8 46.4 4.8 -11.7551
997 3 6.4 48 3.2 -11.0818
968 4 11.2 46.4 4.8 -13.2077
999 2 9.6 48 3.2 -9.71417
970 1 14.4 46.4 4.8 -11.7287
1001 2 12.8 48 3.2 -9.71939
972 1 17.6 46.4 4.8 -11.7806
1003 3 16 48 3.2 -11.2029
974 1 20.8 46.4 4.8 -11.8423
1005 3 19.2 48 3.2 -11.2384
976 1 24 46.4 4.8 -11.8121
1007 3 22.4 48 3.2 -11.2381
1009 3 25.6 48 3.2 -11.2036
978 1 27.2 46.4 4.8 -11.8282
1011 3 28.8 48 3.2 -11.2417
980 1 30.4 46.4 4.8 -11.828
1013 3 32 48 3.2 -11.2417
982 1 33.6 46.4 4.8 -11.8158
1015 3 35.2 48 3.2 -11.242
984 1 36.8 46.4 4.8 -11.7697
1017 3 38.4 48 3.2 -11.2381
986 1 40 46.4 4.8 -11.7634
1019 3 41.6 48 3.2 -11.3066
988 4 43.2 46.4 4.8 -13.3545
1021 3 44.8 48 3.2 -11.2689
990 4 46.4 46.4 4.8 -13.3548
1023 2 48 48 3.2 -9.72385
992 2 49.6 46.4 4.8 -9.81042
994 4 1.6 49.6 4.8 -13.2488
996 1 4.8 49.6 4.8 -11.752
998 1 8 49.6 4.8 -11.768
1000 1 11.2 49.6 4.8 -11.7567
1002 1 14.4 49.6 4.8 -11.7697
1004 1 17.6 49.6 4.8 -11.8259
1006 4 20.8 49.6 4.8 -13.365
1008 1 24 49.6 4.8 -11.8558
1010 1 27.2 49.6 4.8 -11.8417
1012 1 30.4 49.6 4.8 -11.8416
1014 1 33.6 49.6 4.8 -11.8415
1016 1 36.8 49.6 4.8 -11.8698
1018 4 40 49.6 4.8 -13.3634
1020 1 43.2 49.6 4.8 -11.8549
1022 1 46.4 49.6 4.8 -11.7406
1024 1 49.6 49.6 4.8 -11.6856
1025 3 0 0 6.4 -11.199
1026 1 1.6 1.6 8 -11.7994
1027 3 3.2 0 6.4 -11.2361
1028 1 4.8 1.6 8 -11.7996
1029 3 6.4 0 6.4 -11.2742
1030 1 8 1.6 8 -11.8256
1031 3 9.6 0 6.4 -11.2734
1032 1 11.2 1.6 8 -11.8566
1033 3 12.8 0 6.4 -11.269
1034 4 14.4 1.6 8 -13.3558
1035 2 16 0 6.4 -9.82985
1036 4 17.6 1.6 8 -13.3404
1037 3 19.2 0 6.4 -11.2726
1038 1 20.8 1.6 8 -11.7972
1039 3 22.4 0 6.4 -11.1985
1040 1 24 1.6 8 -11.7994
1041 3 25.6 0 6.4 -11.2039
1042 1 27.2 1.6 8 -11.7888
1043 3 28.8 0 6.4 -11.2426
1044 1 30.4 1.6 8 -11.7896
1045 3 32 0 6.4 -11.2033
1046 1 33.6 1.6 8 -11.8253
1047 3 35.2 0 6.4 -11.2759
1048 1 36.8 1.6 8 -11.8411
1049 3 38.4 0 6.4 -11.3091
1050 1 40 1.6 8 -11.8039
1051 3 41.6 0 6.4 -11.239
1052 1 43.2 1.6 8 -11.7556
1053 3 44.8 0 6.4 -11.1243
1054 1 46.4 1.6 8 -11.7097
1055 2 48 0 6.4 -9.64817
1056 1 49.6 1.6 8 -11.7409
1057 3 0 3.2 6.4 -11.1991
1058 1 1.6 4.8 8 -11.8397
1059 3 3.2 3.2 6.4 -11.2402
1060 1 4.8 4.8 8 -11.8122
1061 3 6.4 3.2 6.4 -11.2039
1062 1 8 4.8 8 -11.8123
1063 3 9.6 3.2 6.4 -11.2423
1064 1 11.2 4.8 8 -11.7543
1065 3 12.8 3.2 6.4 -11.2367
1066 4 14.4 4.8 8 -13.3064
1067 3 16 3.2 6.4 -11.2349
1068 1 17.6 4.8 8 -11.828
1069 3 19.2 3.2 6.4 -11.2387
1070 1 20.8 4.8 8 -11.7698
1071 2 22.4 3.2 6.4 -9.77464
1072 4 24 4.8 8 -13.3468
1073 3 25.6 3.2 6.4 -11.3342
1074 4 27.2 4.8 8 -13.4352
1075 3 28.8 3.2 6.4 -11.2304
1076 4 30.4 4.8 8 -13.2967
1077 2 32 3.2 6.4 -9.74255
1078 1 33.6 4.8 8 -11.7578
1079 3 35.2 3.2 6.4 -11.1648
1080 1 36.8 4.8 8 -11.7457
1081 3 38.4 3.2 6.4 -11.2026
1082 4 40 4.8 8 -13.3046
1083 3 41.6 3.2 6.4 -11.2385
1084 4 43.2 4.8 8 -13.2718
1085 3 44.8 3.2 6.4 -11.1624
1086 1 46.4 4.8 8 -11.7364
1087 2 48 3.2 6.4 -9.67958
1088 1 49.6 4.8 8 -11.7235
1089 3 0 6.4 6.4 -11.2731
1090 4 1.6 8 8 -13.3394
1091 3 3.2 6.4 6.4 -11.2361
1092 1 4.8 8 8 -11.7689
1093 3 6.4 6.4 6.4 -11.2051
1094 1 8 8 8 -11.7537
1095 3 9.6 6.4 6.4 -11.1648
1096 1 11.2 8 8 -11.743
1097 2 12.8 6.4 6.4 -9.72188
1098 4 14.4 8 8 -13.318
1099 3 16 6.4 6.4 -11.3049
1100 4 17.6 8 8 -13.3552
1101 3 19.2 6.4 6.4 -11.239
1102 1 20.8 8 8 -11.6755