ITEM: TIMESTEP
0
ITEM: NUMBER OF ATOMS
8192
ITEM: BOX BOUNDS pp pp pp
0.0000000000000000e+00 5.1200000000000003e+01
0.0000000000000000e+00 5.1200000000000003e+01
0.0000000000000000e+00 5.1200000000000003e+01
ITEM: ATOMS id type x y z c_eng
1 3 0 0 0 -11.2394
2 1 1.6 1.6 1.6 -11.8556
3 3 3.2 0 0 -11.2756
4 1 4.8 1.6 1.6 -11.8123
5 3 6.4 0 0 -11.242
6 1 8 1.6 1.6 -11.8124
7 3 9.6 0 0 -11.2039
8 1 11.2 1.6 1.6 -11.8282
9 3 12.8 0 0 -11.2397
10 4 14.4 1.6 1.6 -13.358
11 3 16 0 0 -11.3392
12 1 17.6 1.6 1.6 -11.884
13 3 19.2 0 0 -11.3033
14 4 20.8 1.6 1.6 -13.3645
15 3 22.4 0 0 -11.3084
16 1 24 1.6 1.6 -11.8556
17 3 25.6 0 0 -11.307
18 1 27.2 1.6 1.6 -11.8416
19 3 28.8 0 0 -11.2753
20 1 30.4 1.6 1.6 -11.8417
21 3 32 0 0 -11.2414
22 1 33.6 1.6 1.6 -11.8417
23 3 35.2 0 0 -11.2414
24 1 36.8 1.6 1.6 -11.8417
25 3 38.4 0 0 -11.2414
26 1 40 1.6 1.6 -11.8416
27 3 41.6 0 0 -11.2414
28 1 43.2 1.6 1.6 -11.8417
29 3 44.8 0 0 -11.2753
30 1 46.4 1.6 1.6 -11.8416
31 3 48 0 0 -11.2761
32 1 49.6 1.6 1.6 -11.8415
33 3 0 3.2 0 -11.2394
34 4 1.6 4.8 1.6 -13.283
35 3 3.2 3.2 0 -11.2761
36 1 4.8 4.8 1.6 -11.7661
37 3 6.4 3.2 0 -11.2036
38 1 8 4.8 1.6 -11.7811
39 3 9.6 3.2 0 -11.242
40 1 11.2 4.8 1.6 -11.8556
41 3 12.8 3.2 0 -11.338
42 4 14.4 4.8 1.6 -13.4049
43 3 16 3.2 0 -11.369
44 1 17.6 4.8 1.6 -11.855
45 3 19.2 3.2 0 -11.3086
46 1 20.8 4.8 1.6 -11.884
47 3 22.4 3.2 0 -11.2756
48 1 24 4.8 1.6 -11.8257
49 3 25.6 3.2 0 -11.2033
50 1 27.2 4.8 1.6 -11.8021
51 3 28.8 3.2 0 -11.242
52 1 30.4 4.8 1.6 -11.7808
53 3 32 3.2 0 -11.2417
54 1 33.6 4.8 1.6 -11.8122
55 3 35.2 3.2 0 -11.2414
56 1 36.8 4.8 1.6 -11.8416
57 3 38.4 3.2 0 -11.2414
58 1 40 4.8 1.6 -11.8417
59 3 41.6 3.2 0 -11.2414
60 1 43.2 4.8 1.6 -11.8416
61 3 44.8 3.2 0 -11.2414
62 1 46.4 4.8 1.6 -11.8417
63 3 48 3.2 0 -11.242
64 1 49.6 4.8 1.6 -11.7989
65 2 0 6.4 0 -9.74231
66 1 1.6 8 1.6 -11.7702
67 3 3.2 6.4 0 -11.2021
68 1 4.8 8 1.6 -11.7902
69 3 6.4 6.4 0 -11.2042
70 1 8 8 1.6 -11.7806
71 3 9.6 6.4 0 -11.2417
72 1 11.2 8 1.6 -11.8555
73 3 12.8 6.4 0 -11.307
74 1 14.4 8 1.6 -11.8417
75 3 16 6.4 0 -11.3361
76 1 17.6 8 1.6 -11.8458
77 3 19.2 6.4 0 -11.3368
78 4 20.8 8 1.6 -13.3326
79 3 22.4 6.4 0 -11.2344
80 1 24 8 1.6 -11.7246
81 2 25.6 6.4 0 -9.74243
82 4 27.2 8 1.6 -13.2796
83 3 28.8 6.4 0 -11.2021
84 1 30.4 8 1.6 -11.8263
85 3 32 6.4 0 -11.2036
86 1 33.6 8 1.6 -11.8174
87 3 35.2 6.4 0 -11.242
88 1 36.8 8 1.6 -11.8157
89 3 38.4 6.4 0 -11.2417
90 1 40 8 1.6 -11.7804
91 3 41.6 6.4 0 -11.2417
92 1 43.2 8 1.6 -11.828
93 3 44.8 6.4 0 -11.2417
94 1 46.4 8 1.6 -11.8554
95 3 48 6.4 0 -11.1642
96 1 49.6 8 1.6 -11.7939
97 3 0 9.6 0 -11.1616
98 1 1.6 11.2 1.6 -11.7725
99 3 3.2 9.6 0 -11.3076
100 3 4.8 11.2 1.6 -11.2134
101 3 6.4 9.6 0 -11.3071
102 1 8 11.2 1.6 -11.7899
103 3 9.6 9.6 0 -11.2734
104 4 11.2 11.2 1.6 -13.3553
105 3 12.8 9.6 0 -11.302
106 4 14.4 11.2 1.6 -13.2939
107 2 16 9.6 0 -9.84372
108 4 17.6 11.2 1.6 -13.2998
109 2 19.2 9.6 0 -9.84561
110 4 20.8 11.2 1.6 -13.2974
111 2 22.4 9.6 0 -9.78673
112 1 24 11.2 1.6 -11.63
113 2 25.6 9.6 0 -9.69431
114 1 27.2 11.2 1.6 -11.7965
115 3 28.8 9.6 0 -11.3089
116 4 30.4 11.2 1.6 -13.3457
117 3 32 9.6 0 -11.2023
118 1 33.6 11.2 1.6 -11.7673
119 3 35.2 9.6 0 -11.24
120 4 36.8 11.2 1.6 -13.3628
121 3 38.4 9.6 0 -11.2403
122 1 40 11.2 1.6 -11.7633
123 3 41.6 9.6 0 -11.2384
124 1 43.2 11.2 1.6 -11.797
125 3 44.8 9.6 0 -11.3385
126 4 46.4 11.2 1.6 -13.3972
127 3 48 9.6 0 -11.3038
128 4 49.6 11.2 1.6 -13.3527
129 2 0 12.8 0 -9.81755
130 4 1.6 14.4 1.6 -13.2888
131 2 3.2 12.8 0 -9.84387
132 2 4.8 14.4 1.6 -9.84393
133 3 6.4 12.8 0 -11.2749
134 2 8 14.4 1.6 -9.81424
135 2 9.6 12.8 0 -9.88857
136 2 11.2 14.4 1.6 -9.85833
137 2 12.8 12.8 0 -9.86255
138 4 14.4 14.4 1.6 -13.29
139 4 16 12.8 0 -13.306
140 4 17.6 14.4 1.6 -13.2936
141 4 19.2 12.8 0 -13.2905
142 2 20.8 14.4 1.6 -9.81008
143 3 22.4 12.8 0 -11.17
144 1 24 14.4 1.6 -11.6629
145 2 25.6 12.8 0 -9.81335
146 4 27.2 14.4 1.6 -13.2908
147 3 28.8 12.8 0 -11.3223
148 4 30.4 14.4 1.6 -13.3129
149 4 32 12.8 0 -13.1531
150 1 33.6 14.4 1.6 -11.6604
151 3 35.2 12.8 0 -11.1886
152 4 36.8 14.4 1.6 -13.3476
153 3 38.4 12.8 0 -11.3037
154 4 40 14.4 1.6 -13.3003
155 3 41.6 12.8 0 -11.2383
156 1 43.2 14.4 1.6 -11.7291
157 3 44.8 12.8 0 -11.324
158 4 46.4 14.4 1.6 -13.3106
159 3 48 12.8 0 -11.3145
160 4 49.6 14.4 1.6 -13.2461
161 2 0 16 0 -9.7514
162 3 1.6 17.6 1.6 -11.253
163 4 3.2 16 0 -13.3034
164 3 4.8 17.6 1.6 -11.2302
165 1 6.4 16 0 -11.7847
166 2 8 17.6 1.6 -9.7855
167 4 9.6 16 0 -13.3407
168 2 11.2 17.6 1.6 -9.84689
169 4 12.8 16 0 -13.3764
170 2 14.4 17.6 1.6 -9.843
171 4 16 16 0 -13.3254
172 1 17.6 17.6 1.6 -11.6767
173 2 19.2 16 0 -9.80785
174 4 20.8 17.6 1.6 -13.3208
175 4 22.4 16 0 -13.3009
176 4 24 17.6 1.6 -13.2753
177 4 25.6 16 0 -13.276
178 2 27.2 17.6 1.6 -9.7593
179 2 28.8 16 0 -9.81564
180 2 30.4 17.6 1.6 -9.7897
181 2 32 16 0 -9.75732
182 1 33.6 17.6 1.6 -11.6543
183 4 35.2 16 0 -13.2019
184 4 36.8 17.6 1.6 -13.2159
185 3 38.4 16 0 -11.2513
186 4 40 17.6 1.6 -13.3907
187 3 41.6 16 0 -11.2794
188 3 43.2 17.6 1.6 -11.307
189 4 44.8 16 0 -13.3249
190 2 46.4 17.6 1.6 -9.81879
191 4 48 16 0 -13.2831
192 4 49.6 17.6 1.6 -13.2499
193 1 0 19.2 0 -11.7814
194 3 1.6 20.8 1.6 -11.3047
195 1 3.2 19.2 0 -11.8414
196 3 4.8 20.8 1.6 -11.2764
197 1 6.4 19.2 0 -11.8278
198 3 8 20.8 1.6 -11.201
199 4 9.6 19.2 0 -13.3338
200 3 11.2 20.8 1.6 -11.2742
201 1 12.8 19.2 0 -11.8607
202 3 14.4 20.8 1.6 -11.3598
203 4 16 19.2 0 -13.298
204 2 17.6 20.8 1.6 -9.82012
205 4 19.2 19.2 0 -13.3296
206 2 20.8 20.8 1.6 -9.8293
207 2 22.4 19.2 0 -9.83978
208 4 24 20.8 1.6 -13.3863
209 4 25.6 19.2 0 -13.3414
210 4 27.2 20.8 1.6 -13.2869
211 1 28.8 19.2 0 -11.7098
212 2 30.4 20.8 1.6 -9.84584
213 2 32 19.2 0 -9.78205
214 2 33.6 20.8 1.6 -9.79293
215 4 35.2 19.2 0 -13.1862
216 2 36.8 20.8 1.6 -9.76468
217 4 38.4 19.2 0 -13.2667
218 3 40 20.8 1.6 -11.2251
219 4 41.6 19.2 0 -13.3738
220 2 43.2 20.8 1.6 -9.83883
221 4 44.8 19.2 0 -13.3962
222 2 46.4 20.8 1.6 -9.84419
223 2 48 19.2 0 -9.7722
224 2 49.6 20.8 1.6 -9.8447
225 1 0 22.4 0 -11.8279
226 3 1.6 24 1.6 -11.3091
227 1 3.2 22.4 0 -11.8414
228 3 4.8 24 1.6 -11.2759
229 1 6.4 22.4 0 -11.8416
230 3 8 24 1.6 -11.2045
231 1 9.6 22.4 0 -11.8558
232 3 11.2 24 1.6 -11.1651
233 1 12.8 22.4 0 -11.8551
234 3 14.4 24 1.6 -11.2982
235 4 16 22.4 0 -13.3738
236 2 17.6 24 1.6 -9.84275
237 4 19.2 22.4 0 -13.2555
238 4 20.8 24 1.6 -13.3098
239 4 22.4 22.4 0 -13.32
240 2 24 24 1.6 -9.8148
241 2 25.6 22.4 0 -9.84464
242 2 27.2 24 1.6 -9.87025
243 4 28.8 22.4 0 -13.3443
244 3 30.4 24 1.6 -11.2557
245 4 32 22.4 0 -13.3204
246 3 33.6 24 1.6 -11.2292
247 1 35.2 22.4 0 -11.6908
248 2 36.8 24 1.6 -9.77838
249 1 38.4 22.4 0 -11.7419
250 3 40 24 1.6 -11.2372
251 1 41.6 22.4 0 -11.7778
252 3 43.2 24 1.6 -11.1636
253 4 44.8 22.4 0 -13.3006
254 3 46.4 24 1.6 -11.2384
255 1 48 22.4 0 -11.8461
256 3 49.6 24 1.6 -11.2729
257 1 0 25.6 0 -11.8122
259 1 3.2 25.6 0 -11.7943
261 1 6.4 25.6 0 -11.781
263 1 9.6 25.6 0 -11.7845
265 1 12.8 25.6 0 -11.8415
267 4 16 25.6 0 -13.3321
269 4 19.2 25.6 0 -13.2776
271 4 22.4 25.6 0 -13.3098
273 4 25.6 25.6 0 -13.378
275 4 28.8 25.6 0 -13.3733
277 1 32 25.6 0 -11.7569
279 1 35.2 25.6 0 -11.7071
281 1 38.4 25.6 0 -11.7558
283 1 41.6 25.6 0 -11.7192
285 1 44.8 25.6 0 -11.8003
287 1 48 25.6 0 -11.8413
258 3 1.6 27.2 1.6 -11.2378
289 1 0 28.8 0 -11.8124
260 3 4.8 27.2 1.6 -11.2381
291 1 3.2 28.8 0 -11.781
262 3 8 27.2 1.6 -11.1648
293 1 6.4 28.8 0 -11.7509
264 2 11.2 27.2 1.6 -9.77342
295 1 9.6 28.8 0 -11.7679
266 3 14.4 27.2 1.6 -11.229
297 4 12.8 28.8 0 -13.3799
268 4 17.6 27.2 1.6 -13.2456
299 1 16 28.8 0 -11.8238
270 3 20.8 27.2 1.6 -11.282
301 1 19.2 28.8 0 -11.8039
272 3 24 27.2 1.6 -11.362
303 4 22.4 28.8 0 -13.3587
305 1 25.6 28.8 0 -11.8552
274 3 27.2 27.2 1.6 -11.3327
307 4 28.8 28.8 0 -13.356
276 2 30.4 27.2 1.6 -9.83001
309 1 32 28.8 0 -11.7382
278 3 33.6 27.2 1.6 -11.1556
311 1 35.2 28.8 0 -11.7171
280 2 36.8 27.2 1.6 -9.81472
313 4 38.4 28.8 0 -13.3001
282 2 40 27.2 1.6 -9.78729
315 1 41.6 28.8 0 -11.6731
284 2 43.2 27.2 1.6 -9.72771
317 4 44.8 28.8 0 -13.2622
286 3 46.4 27.2 1.6 -11.274
319 1 48 28.8 0 -11.8556
288 3 49.6 27.2 1.6 -11.2417
290 3 1.6 30.4 1.6 -11.2417
321 1 0 32 0 -11.8416
292 3 4.8 30.4 1.6 -11.2423
323 1 3.2 32 0 -11.8123
294 3 8 30.4 1.6 -11.2045
325 1 6.4 32 0 -11.7707
296 3 11.2 30.4 1.6 -11.2996
327 1 9.6 32 0 -11.7674
298 3 14.4 30.4 1.6 -11.3317
329 4 12.8 32 0 -13.3778
300 3 17.6 30.4 1.6 -11.1952
331 4 16 32 0 -13.3027
302 3 20.8 30.4 1.6 -11.3373
333 1 19.2 32 0 -11.8132
304 3 24 30.4 1.6 -11.2738
335 1 22.4 32 0 -11.8713
337 1 25.6 32 0 -11.799
306 3 27.2 30.4 1.6 -11.2366
339 1 28.8 32 0 -11.7843
308 3 30.4 30.4 1.6 -11.2326
341 1 32 32 0 -11.7139
310 2 33.6 30.4 1.6 -9.75754
343 4 35.2 32 0 -13.2981
312 2 36.8 30.4 1.6 -9.82131
345 3 38.4 32 0 -11.2462
314 4 40 30.4 1.6 -13.2806
347 2 41.6 32 0 -9.71015
316 4 43.2 30.4 1.6 -13.2535
349 1 44.8 32 0 -11.7549
318 3 46.4 30.4 1.6 -11.2357
351 1 48 32 0 -11.8278
320 3 49.6 30.4 1.6 -11.2417
322 3 1.6 33.6 1.6 -11.2417
353 1 0 35.2 0 -11.8555
324 3 4.8 33.6 1.6 -11.2039
355 1 3.2 35.2 0 -11.826
326 3 8 33.6 1.6 -11.1615
357 1 6.4 35.2 0 -11.7674
328 2 11.2 33.6 1.6 -9.86587
359 1 9.6 35.2 0 -11.8165
330 4 14.4 33.6 1.6 -13.2821
361 4 12.8 35.2 0 -13.3266
332 2 17.6 33.6 1.6 -9.73566
363 1 16 35.2 0 -11.7092
334 2 20.8 33.6 1.6 -9.81721
365 1 19.2 35.2 0 -11.7609
336 3 24 33.6 1.6 -11.2987
367 4 22.4 35.2 0 -13.3021
369 4 25.6 35.2 0 -13.2975
338 2 27.2 33.6 1.6 -9.78886
371 1 28.8 35.2 0 -11.7122
340 2 30.4 33.6 1.6 -9.78719
373 4 32 35.2 0 -13.3063
342 4 33.6 33.6 1.6 -13.3158
375 3 35.2 35.2 0 -11.2753
344 4 36.8 33.6 1.6 -13.3793
377 2 38.4 35.2 0 -9.81133
346 1 40 33.6 1.6 -11.7444
379 4 41.6 35.2 0 -13.2384
348 2 43.2 33.6 1.6 -9.79011
381 2 44.8 35.2 0 -9.81861
350 3 46.4 33.6 1.6 -11.3325
383 4 48 35.2 0 -13.3571
352 3 49.6 33.6 1.6 -11.2756
354 3 1.6 36.8 1.6 -11.3091
385 1 0 38.4 0 -11.8434
356 3 4.8 36.8 1.6 -11.2367
387 4 3.2 38.4 0 -13.3584
358 2 8 36.8 1.6 -9.81333
389 4 6.4 38.4 0 -13.3526
360 3 11.2 36.8 1.6 -11.3005
391 2 9.6 38.4 0 -9.83426
362 4 14.4 36.8 1.6 -13.2749
393 4 12.8 38.4 0 -13.3533
364 4 17.6 36.8 1.6 -13.2544
395 1 16 38.4 0 -11.6624
366 2 20.8 36.8 1.6 -9.81826
397 4 19.2 38.4 0 -13.2409
368 2 24 36.8 1.6 -9.8173
399 4 22.4 38.4 0 -13.3278
401 2 25.6 38.4 0 -9.84297
370 4 27.2 36.8 1.6 -13.2545
403 2 28.8 38.4 0 -9.79353
372 4 30.4 36.8 1.6 -13.2853
405 2 32 38.4 0 -9.82094
374 4 33.6 36.8 1.6 -13.3677
407 3 35.2 38.4 0 -11.297
376 4 36.8 36.8 1.6 -13.3706
409 3 38.4 38.4 0 -11.3022
378 4 40 36.8 1.6 -13.2659
411 3 41.6 38.4 0 -11.2576
380 4 43.2 36.8 1.6 -13.354
413 2 44.8 38.4 0 -9.8875
382 3 46.4 36.8 1.6 -11.3463
415 4 48 38.4 0 -13.3485
384 3 49.6 36.8 1.6 -11.3359
386 3 1.6 40 1.6 -11.3259
417 4 0 41.6 0 -13.2957
388 2 4.8 40 1.6 -9.81908
419 4 3.2 41.6 0 -13.3231
390 4 8 40 1.6 -13.2863
421 2 6.4 41.6 0 -9.81257
392 4 11.2 40 1.6 -13.3602
423 2 9.6 41.6 0 -9.86761
394 4 14.4 40 1.6 -13.2657
425 2 12.8 41.6 0 -9.81332
396 2 17.6 40 1.6 -9.74386
427 1 16 41.6 0 -11.6328
398 4 20.8 40 1.6 -13.3543
429 4 19.2 41.6 0 -13.2818
400 4 24 40 1.6 -13.2938
431 3 22.4 41.6 0 -11.2798
433 3 25.6 41.6 0 -11.2634
402 1 27.2 40 1.6 -11.7737
435 3 28.8 41.6 0 -11.3097
404 4 30.4 40 1.6 -13.3245
437 3 32 41.6 0 -11.2734
406 4 33.6 40 1.6 -13.3282
439 3 35.2 41.6 0 -11.2751
408 1 36.8 40 1.6 -11.8187
441 3 38.4 41.6 0 -11.2761
410 1 40 40 1.6 -11.8132
443 3 41.6 41.6 0 -11.3084
412 4 43.2 40 1.6 -13.3241
445 3 44.8 41.6 0 -11.2866
414 2 46.4 40 1.6 -9.86477
447 4 48 41.6 0 -13.2984
416 2 49.6 40 1.6 -9.86927
418 4 1.6 43.2 1.6 -13.2891
449 2 0 44.8 0 -9.82149
420 1 4.8 43.2 1.6 -11.6894
451 2 3.2 44.8 0 -9.84019
422 1 8 43.2 1.6 -11.7858
453 3 6.4 44.8 0 -11.1953
424 4 11.2 43.2 1.6 -13.3516
455 3 9.6 44.8 0 -11.2696
426 2 14.4 43.2 1.6 -9.82686
457 2 12.8 44.8 0 -9.87003
428 4 17.6 43.2 1.6 -13.2621
459 2 16 44.8 0 -9.81716
430 2 20.8 43.2 1.6 -9.80273
461 2 19.2 44.8 0 -9.79244
432 1 24 43.2 1.6 -11.7954
463 3 22.4 44.8 0 -11.2994
465 3 25.6 44.8 0 -11.2028
434 1 27.2 43.2 1.6 -11.7804
467 3 28.8 44.8 0 -11.242
436 1 30.4 43.2 1.6 -11.8555
469 3 32 44.8 0 -11.2414
438 1 33.6 43.2 1.6 -11.8592
471 3 35.2 44.8 0 -11.2759
440 4 36.8 43.2 1.6 -13.339
473 3 38.4 44.8 0 -11.2394
442 1 40 43.2 1.6 -11.7962
475 3 41.6 44.8 0 -11.2036
444 1 43.2 43.2 1.6 -11.7891
477 3 44.8 44.8 0 -11.277
446 1 46.4 43.2 1.6 -11.76
479 3 48 44.8 0 -11.2016
448 2 49.6 43.2 1.6 -9.77699
450 4 1.6 46.4 1.6 -13.2905
481 2 0 48 0 -9.77722
452 1 4.8 46.4 1.6 -11.7675
483 3 3.2 48 0 -11.2704
454 1 8 46.4 1.6 -11.784
485 3 6.4 48 0 -11.2426
456 1 11.2 46.4 1.6 -11.7889
487 3 9.6 48 0 -11.2387
458 4 14.4 46.4 1.6 -13.3266
489 3 12.8 48 0 -11.2698
460 1 17.6 46.4 1.6 -11.7437
491 3 16 48 0 -11.3012
462 1 20.8 46.4 1.6 -11.8149
493 2 19.2 48 0 -9.80494
464 1 24 46.4 1.6 -11.8255
495 3 22.4 48 0 -11.2693
497 3 25.6 48 0 -11.3058
466 1 27.2 46.4 1.6 -11.8281
499 3 28.8 48 0 -11.2756
468 1 30.4 46.4 1.6 -11.8416
501 3 32 48 0 -11.2414
470 1 33.6 46.4 1.6 -11.8415
503 3 35.2 48 0 -11.2414
472 1 36.8 46.4 1.6 -11.8282
505 3 38.4 48 0 -11.2417
474 1 40 46.4 1.6 -11.7807
507 3 41.6 48 0 -11.2417
476 1 43.2 46.4 1.6 -11.8281
509 3 44.8 48 0 -11.2759
478 1 46.4 46.4 1.6 -11.7652
511 3 48 48 0 -11.1582
480 1 49.6 46.4 1.6 -11.7181
482 1 1.6 49.6 1.6 -11.8292
484 1 4.8 49.6 1.6 -11.8414
486 1 8 49.6 1.6 -11.8124
488 1 11.2 49.6 1.6 -11.7505
490 1 14.4 49.6 1.6 -11.8121
492 1 17.6 49.6 1.6 -11.8278
494 1 20.8 49.6 1.6 -11.8257
496 1 24 49.6 1.6 -11.8555
498 1 27.2 49.6 1.6 -11.8556
500 1 30.4 49.6 1.6 -11.8416
502 1 33.6 49.6 1.6 -11.8417
504 1 36.8 49.6 1.6 -11.8416
506 1 40 49.6 1.6 -11.8558
508 1 43.2 49.6 1.6 -11.8414
510 1 46.4 49.6 1.6 -11.7934
512 1 49.6 49.6 1.6 -11.7365
513 3 0 0 3.2 -11.274
514 1 1.6 1.6 4.8 -11.8258
515 3 3.2 0 3.2 -11.2764
516 1 4.8 1.6 4.8 -11.8122
517 3 6.4 0 3.2 -11.2039
518 1 8 1.6 4.8 -11.8123
519 3 9.6 0 3.2 -11.1645
520 1 11.2 1.6 4.8 -11.7841
521 2 12.8 0 3.2 -9.74088
522 1 14.4 1.6 4.8 -11.8154
523 3 16 0 3.2 -11.2394
524 1 17.6 1.6 4.8 -11.8554
525 3 19.2 0 3.2 -11.2758
526 1 20.8 1.6 4.8 -11.8416
527 3 22.4 0 3.2 -11.2758
528 1 24 1.6 4.8 -11.7985
529 3 25.6 0 3.2 -11.242
530 1 27.2 1.6 4.8 -11.7842
531 3 28.8 0 3.2 -11.2033
532 1 30.4 1.6 4.8 -11.8282
533 3 32 0 3.2 -11.2417
534 1 33.6 1.6 4.8 -11.8416
535 3 35.2 0 3.2 -11.2414
536 1 36.8 1.6 4.8 -11.8416
537 3 38.4 0 3.2 -11.2753
538 1 40 1.6 4.8 -11.8557
539 3 41.6 0 3.2 -11.2753
540 1 43.2 1.6 4.8 -11.8414
541 3 44.8 0 3.2 -11.2423
542 1 46.4 1.6 4.8 -11.8122
543 3 48 0 3.2 -11.2023
544 1 49.6 1.6 4.8 -11.8116
545 3 0 3.2 3.2 -11.2007
546 1 1.6 4.8 4.8 -11.7705
547 3 3.2 3.2 3.2 -11.2007
548 1 4.8 4.8 4.8 -11.7509
549 2 6.4 3.2 3.2 -9.70671
550 1 8 4.8 4.8 -11.781
551 3 9.6 3.2 3.2 -11.2042
552 1 11.2 4.8 4.8 -11.8281
553 3 12.8 3.2 3.2 -11.2321
554 1 14.4 4.8 4.8 -11.8419
555 3 16 3.2 3.2 -11.3073
556 1 17.6 4.8 4.8 -11.8554
557 3 19.2 3.2 3.2 -11.3089
558 4 20.8 4.8 4.8 -13.3349
559 3 22.4 3.2 3.2 -11.3052
560 4 24 4.8 4.8 -13.3336
561 3 25.6 3.2 3.2 -11.24
562 1 27.2 4.8 4.8 -11.828
563 3 28.8 3.2 3.2 -11.2042
564 1 30.4 4.8 4.8 -11.7844
565 3 32 3.2 3.2 -11.2039
566 1 33.6 4.8 4.8 -11.7878
567 3 35.2 3.2 3.2 -11.242
568 1 36.8 4.8 4.8 -11.7983
569 3 38.4 3.2 3.2 -11.2417
570 1 40 4.8 4.8 -11.8278
571 3 41.6 3.2 3.2 -11.2414
572 1 43.2 4.8 4.8 -11.8438
573 3 44.8 3.2 3.2 -11.242
574 1 46.4 4.8 4.8 -11.7504
575 3 48 3.2 3.2 -11.2042
576 1 49.6 4.8 4.8 -11.7242
577 2 0 6.4 3.2 -9.71403
578 1 1.6 8 4.8 -11.7527
579 2 3.2 6.4 3.2 -9.71494
580 1 4.8 8 4.8 -11.7506
581 2 6.4 6.4 3.2 -9.64743
582 1 8 8 4.8 -11.7811
583 3 9.6 6.4 3.2 -11.2039
584 1 11.2 8 4.8 -11.8414
585 3 12.8 6.4 3.2 -11.2756
586 1 14.4 8 4.8 -11.8554
587 3 16 6.4 3.2 -11.2756
588 1 17.6 8 4.8 -11.8553
589 3 19.2 6.4 3.2 -11.3094
590 1 20.8 8 4.8 -11.8302
591 3 22.4 6.4 3.2 -11.269
592 1 24 8 4.8 -11.7706
593 3 25.6 6.4 3.2 -11.2322
594 4 27.2 8 4.8 -13.3752
595 2 28.8 6.4 3.2 -9.80369
596 4 30.4 8 4.8 -13.3787
597 2 32 6.4 3.2 -9.77732
598 2 33.6 8 4.8 -9.78377
599 3 35.2 6.4 3.2 -11.2345
600 4 36.8 8 4.8 -13.3025
601 3 38.4 6.4 3.2 -11.2029
602 1 40 8 4.8 -11.7407
603 3 41.6 6.4 3.2 -11.2405
604 4 43.2 8 4.8 -13.276
605 3 44.8 6.4 3.2 -11.24
606 1 46.4 8 4.8 -11.7617
607 3 48 6.4 3.2 -11.1651
608 1 49.6 8 4.8 -11.7058
609 3 0 9.6 3.2 -11.1982
610 1 1.6 11.2 4.8 -11.7595
611 3 3.2 9.6 3.2 -11.1997
612 1 4.8 11.2 4.8 -11.7346
613 2 6.4 9.6 3.2 -9.75531
614 1 8 11.2 4.8 -11.7033
615 3 9.6 9.6 3.2 -11.2013
616 1 11.2 11.2 4.8 -11.8158
617 3 12.8 9.6 3.2 -11.2734
618 1 14.4 11.2 4.8 -11.7677
619 3 16 9.6 3.2 -11.238
620 1 17.6 11.2 4.8 -11.8087
621 3 19.2 9.6 3.2 -11.3037
622 4 20.8 11.2 4.8 -13.3209
623 2 22.4 9.6 3.2 -9.71896
624 1 24 11.2 4.8 -11.6151
625 2 25.6 9.6 3.2 -9.7184
626 4 27.2 11.2 4.8 -13.2603
627 3 28.8 9.6 3.2 -11.354
628 2 30.4 11.2 4.8 -9.83
629 3 32 9.6 3.2 -11.2885
630 4 33.6 11.2 4.8 -13.3222
631 2 35.2 9.6 3.2 -9.89108
632 3 36.8 11.2 4.8 -11.2342
633 2 38.4 9.6 3.2 -9.78436
634 2 40 11.2 4.8 -9.76481
635 2 41.6 9.6 3.2 -9.75786
636 4 43.2 11.2 4.8 -13.2636
637 3 44.8 9.6 3.2 -11.267
638 4 46.4 11.2 4.8 -13.2869
639 3 48 9.6 3.2 -11.2659
640 4 49.6 11.2 4.8 -13.2598
641 2 0 12.8 3.2 -9.78913
642 2 1.6 14.4 4.8 -9.83291
643 4 3.2 12.8 3.2 -13.2659
644 4 4.8 14.4 4.8 -13.1784
645 4 6.4 12.8 3.2 -13.2054
646 4 8 14.4 4.8 -13.2579
647 2 9.6 12.8 3.2 -9.78855
648 4 11.2 14.4 4.8 -13.3309
649 2 12.8 12.8 3.2 -9.81463
650 1 14.4 14.4 4.8 -11.7556
651 2 16 12.8 3.2 -9.72636
652 1 17.6 14.4 4.8 -11.795
653 3 19.2 12.8 3.2 -11.2901
654 4 20.8 14.4 4.8 -13.3149
655 4 22.4 12.8 3.2 -13.1402
656 1 24 14.4 4.8 -11.6253
657 2 25.6 12.8 3.2 -9.62274
658 4 27.2 14.4 4.8 -13.2325
659 3 28.8 12.8 3.2 -11.2772
660 2 30.4 14.4 4.8 -9.8407
661 2 32 12.8 3.2 -9.84539
662 2 33.6 14.4 4.8 -9.75311
663 3 35.2 12.8 3.2 -11.2754
664 2 36.8 14.4 4.8 -9.83474
665 4 38.4 12.8 3.2 -13.3565
666 2 40 14.4 4.8 -9.78794
667 2 41.6 12.8 3.2 -9.73342
668 2 43.2 14.4 4.8 -9.81822
669 2 44.8 12.8 3.2 -9.84052
670 3 46.4 14.4 4.8 -11.2676
671 2 48 12.8 3.2 -9.89053
672 2 49.6 14.4 4.8 -9.84363
673 4 0 16 3.2 -13.2606
674 2 1.6 17.6 4.8 -9.81996
675 4 3.2 16 3.2 -13.2847
676 4 4.8 17.6 4.8 -13.2483
677 4 6.4 16 3.2 -13.1622
678 2 8 17.6 4.8 -9.72668
679 4 9.6 16 3.2 -13.2891
680 4 11.2 17.6 4.8 -13.3688
681 2 12.8 16 3.2 -9.86523
682 2 14.4 17.6 4.8 -9.8598
683 2 16 16 3.2 -9.76378
684 1 17.6 17.6 4.8 -11.768
685 3 19.2 16 3.2 -11.2583
686 1 20.8 17.6 4.8 -11.8031
687 2 22.4 16 3.2 -9.76164
688 4 24 17.6 4.8 -13.2917
689 2 25.6 16 3.2 -9.76036
690 4 27.2 17.6 4.8 -13.3151
691 4 28.8 16 3.2 -13.3456
692 2 30.4 17.6 4.8 -9.8443
693 2 32 16 3.2 -9.78692
694 4 33.6 17.6 4.8 -13.2587
695 2 35.2 16 3.2 -9.78892
696 2 36.8 17.6 4.8 -9.78881
697 2 38.4 16 3.2 -9.83246
698 3 40 17.6 4.8 -11.2649
699 4 41.6 16 3.2 -13.3677
700 3 43.2 17.6 4.8 -11.3324
701 4 44.8 16 3.2 -13.3119
702 2 46.4 17.6 4.8 -9.81439
703 4 48 16 3.2 -13.2444
704 2 49.6 17.6 4.8 -9.76106
705 4 0 19.2 3.2 -13.3154
706 3 1.6 20.8 4.8 -11.3929
707 4 3.2 19.2 3.2 -13.3541
708 3 4.8 20.8 4.8 -11.2251
709 1 6.4 19.2 3.2 -11.7471
710 2 8 20.8 4.8 -9.81112
711 1 9.6 19.2 3.2 -11.7377
712 2 11.2 20.8 4.8 -9.83969
713 2 12.8 19.2 3.2 -9.82469
714 2 14.4 20.8 4.8 -9.85576
715 4 16 19.2 3.2 -13.3308
716 4 17.6 20.8 4.8 -13.2788
717 2 19.2 19.2 3.2 -9.7604
718 1 20.8 20.8 4.8 -11.7631
719 3 22.4 19.2 3.2 -11.2931
720 1 24 20.8 4.8 -11.8151
721 3 25.6 19.2 3.2 -11.247
722 4 27.2 20.8 4.8 -13.2658
723 4 28.8 19.2 3.2 -13.2553
724 2 30.4 20.8 4.8 -9.82092
725 4 32 19.2 3.2 -13.2868
726 2 33.6 20.8 4.8 -9.82196
727 2 35.2 19.2 3.2 -9.7626
728 4 36.8 20.8 4.8 -13.3144
729 4 38.4 19.2 3.2 -13.3229
730 3 40 20.8 4.8 -11.3029
731 4 41.6 19.2 3.2 -13.3823
732 3 43.2 20.8 4.8 -11.1972
733 4 44.8 19.2 3.2 -13.3163
734 2 46.4 20.8 4.8 -9.75773
735 4 48 19.2 3.2 -13.2907
736 3 49.6 20.8 4.8 -11.2888
737 4 0 22.4 3.2 -13.401
738 3 1.6 24 4.8 -11.3666
739 1 3.2 22.4 3.2 -11.8975
740 3 4.8 24 4.8 -11.3043
741 1 6.4 22.4 3.2 -11.7981
742 2 8 24 4.8 -9.77889
743 1 9.6 22.4 3.2 -11.7587
744 2 11.2 24 4.8 -9.7299
745 1 12.8 22.4 3.2 -11.7895
746 4 14.4 24 4.8 -13.3024
747 2 16 22.4 3.2 -9.80589
748 2 17.6 24 4.8 -9.81163
749 4 19.2 22.4 3.2 -13.2773
750 4 20.8 24 4.8 -13.2621
751 2 22.4 22.4 3.2 -9.79311
752 1 24 24 4.8 -11.7251
753 2 25.6 22.4 3.2 -9.81963
754 4 27.2 24 4.8 -13.2594
755 4 28.8 22.4 3.2 -13.2475
756 2 30.4 24 4.8 -9.82153
757 4 32 22.4 3.2 -13.316
758 2 33.6 24 4.8 -9.86882
759 4 35.2 22.4 3.2 -13.3248
760 3 36.8 24 4.8 -11.2566
761 4 38.4 22.4 3.2 -13.3523
762 3 40 24 4.8 -11.2673
763 1 41.6 22.4 3.2 -11.8412
764 3 43.2 24 4.8 -11.1243
765 1 44.8 22.4 3.2 -11.7748
766 2 46.4 24 4.8 -9.80492
767 4 48 22.4 3.2 -13.3217
768 3 49.6 24 4.8 -11.3913
769 1 0 25.6 3.2 -11.8834
771 4 3.2 25.6 3.2 -13.3639
773 1 6.4 25.6 3.2 -11.826
775 1 9.6 25.6 3.2 -11.7199
777 1 12.8 25.6 3.2 -11.7323
779 4 16 25.6 3.2 -13.3257
781 2 19.2 25.6 3.2 -9.80833
783 2 22.4 25.6 3.2 -9.84301
785 4 25.6 25.6 3.2 -13.3197
787 4 28.8 25.6 3.2 -13.3263
789 1 32 25.6 3.2 -11.8182
791 4 35.2 25.6 3.2 -13.3289
793 4 38.4 25.6 3.2 -13.3233
795 1 41.6 25.6 3.2 -11.7753
797 1 44.8 25.6 3.2 -11.7696
799 1 48 25.6 3.2 -11.8436
770 3 1.6 27.2 4.8 -11.3089
801 1 0 28.8 3.2 -11.8415
772 3 4.8 27.2 4.8 -11.2756
803 1 3.2 28.8 3.2 -11.8558
774 3 8 27.2 4.8 -11.1642
805 1 6.4 28.8 3.2 -11.8416
776 2 11.2 27.2 4.8 -9.75391
807 1 9.6 28.8 3.2 -11.7985
778 2 14.4 27.2 4.8 -9.81719
809 4 12.8 28.8 3.2 -13.3182
780 4 17.6 27.2 4.8 -13.2686
811 1 16 28.8 3.2 -11.7451
782 2 20.8 27.2 4.8 -9.86948
813 4 19.2 28.8 3.2 -13.2919
784 2 24 27.2 4.8 -9.79191
815 1 22.4 28.8 3.2 -11.8434
817 1 25.6 28.8 3.2 -11.7951
786 3 27.2 27.2 4.8 -11.2314
819 1 28.8 28.8 3.2 -11.8573
788 3 30.4 27.2 4.8 -11.2342
821 1 32 28.8 3.2 -11.7862
790 3 33.6 27.2 4.8 -11.2684
823 4 35.2 28.8 3.2 -13.3014
792 2 36.8 27.2 4.8 -9.81958
825 2 38.4 28.8 3.2 -9.83821
794 2 40 27.2 4.8 -9.81483
827 2 41.6 28.8 3.2 -9.80567
796 2 43.2 27.2 4.8 -9.7842
829 4 44.8 28.8 3.2 -13.3074
798 3 46.4 27.2 4.8 -11.1981
831 1 48 28.8 3.2 -11.828
800 3 49.6 27.2 4.8 -11.3073
802 3 1.6 30.4 4.8 -11.2414
833 1 0 32 3.2 -11.8417
804 3 4.8 30.4 4.8 -11.2414
835 1 3.2 32 3.2 -11.8417
806 3 8 30.4 4.8 -11.2756
837 1 6.4 32 3.2 -11.8415
808 3 11.2 30.4 4.8 -11.3045
839 1 9.6 32 3.2 -11.8568
810 3 14.4 30.4 4.8 -11.2989
841 4 12.8 32 3.2 -13.3768
812 2 17.6 30.4 4.8 -9.79769
843 1 16 32 3.2 -11.7661
814 3 20.8 30.4 4.8 -11.2874
845 4 19.2 32 3.2 -13.29
816 2 24 30.4 4.8 -9.83292
847 4 22.4 32 3.2 -13.3332
849 1 25.6 32 3.2 -11.8181
818 3 27.2 30.4 4.8 -11.2702
851 4 28.8 32 3.2 -13.3325
820 3 30.4 30.4 4.8 -11.2314
853 4 32 32 3.2 -13.3043
822 2 33.6 30.4 4.8 -9.81546
855 2 35.2 32 3.2 -9.84601
824 1 36.8 30.4 4.8 -11.7124
857 3 38.4 32 3.2 -11.2595
826 4 40 30.4 4.8 -13.2882
859 2 41.6 32 3.2 -9.8192
828 2 43.2 30.4 4.8 -9.81466
861 4 44.8 32 3.2 -13.3005
830 2 46.4 30.4 4.8 -9.77488
863 1 48 32 3.2 -11.828
832 3 49.6 30.4 4.8 -11.2033
834 3 1.6 33.6 4.8 -11.2414
865 1 0 35.2 3.2 -11.8556
836 3 4.8 33.6 4.8 -11.242
867 1 3.2 35.2 3.2 -11.8415
838 3 8 33.6 4.8 -11.3054
869 1 6.4 35.2 3.2 -11.7983
840 3 11.2 33.6 4.8 -11.293
871 4 9.6 35.2 3.2 -13.3333
842 3 14.4 33.6 4.8 -11.2559
873 2 12.8 35.2 3.2 -9.8708
844 4 17.6 33.6 4.8 -13.2508
875 2 16 35.2 3.2 -9.79273
846 4 20.8 33.6 4.8 -13.3173
877 2 19.2 35.2 3.2 -9.79049
848 3 24 33.6 4.8 -11.2473
879 4 22.4 35.2 3.2 -13.3493
881 4 25.6 35.2 3.2 -13.3246
850 2 27.2 33.6 4.8 -9.8458
883 2 28.8 35.2 3.2 -9.83886
852 4 30.4 33.6 4.8 -13.3174
885 3 32 35.2 3.2 -11.2756
854 4 33.6 33.6 4.8 -13.3453
887 3 35.2 35.2 3.2 -11.3607
856 1 36.8 33.6 4.8 -11.8291
889 3 38.4 35.2 3.2 -11.2335
858 1 40 33.6 4.8 -11.7224
891 2 41.6 35.2 3.2 -9.76365
860 2 43.2 33.6 4.8 -9.818
893 4 44.8 35.2 3.2 -13.3814
862 3 46.4 33.6 4.8 -11.2359
895 1 48 35.2 3.2 -11.883
864 3 49.6 33.6 4.8 -11.2417
866 3 1.6 36.8 4.8 -11.2761
897 4 0 38.4 3.2 -13.3805
868 3 4.8 36.8 4.8 -11.1643
899 1 3.2 38.4 3.2 -11.8413
870 2 8 36.8 4.8 -9.73348
901 1 6.4 38.4 3.2 -11.6904
872 4 11.2 36.8 4.8 -13.291
903 4 9.6 38.4 3.2 -13.2935
874 4 14.4 36.8 4.8 -13.3249
905 3 12.8 38.4 3.2 -11.2459
876 4 17.6 36.8 4.8 -13.3166
907 3 16 38.4 3.2 -11.2557
878 4 20.8 36.8 4.8 -13.3106
909 2 19.2 38.4 3.2 -9.8462
880 4 24 36.8 4.8 -13.3296
911 2 22.4 38.4 3.2 -9.78975
913 2 25.6 38.4 3.2 -9.76119
882 2 27.2 36.8 4.8 -9.81687
915 2 28.8 38.4 3.2 -9.84475
884 4 30.4 36.8 4.8 -13.3404
917 2 32 38.4 3.2 -9.8485
886 4 33.6 36.8 4.8 -13.2783
919 2 35.2 38.4 3.2 -9.78874
888 1 36.8 36.8 4.8 -11.7898
921 2 38.4 38.4 3.2 -9.78345
890 1 40 36.8 4.8 -11.7012
923 2 41.6 38.4 3.2 -9.76132
892 2 43.2 36.8 4.8 -9.76369
925 4 44.8 38.4 3.2 -13.3156
894 3 46.4 36.8 4.8 -11.3351
927 4 48 38.4 3.2 -13.4208
896 3 49.6 36.8 4.8 -11.338
898 3 1.6 40 4.8 -11.2934
929 4 0 41.6 3.2 -13.3996
900 2 4.8 40 4.8 -9.81493
931 2 3.2 41.6 3.2 -9.76854
902 4 8 40 4.8 -13.2845
933 2 6.4 41.6 3.2 -9.79345
904 1 11.2 40 4.8 -11.778
935 3 9.6 41.6 3.2 -11.2549
906 1 14.4 40 4.8 -11.8007
937 2 12.8 41.6 3.2 -9.86844
908 1 17.6 40 4.8 -11.7709
939 2 16 41.6 3.2 -9.82079
910 1 20.8 40 4.8 -11.7134
941 3 19.2 41.6 3.2 -11.1807
912 1 24 40 4.8 -11.7157
943 2 22.4 41.6 3.2 -9.77529
945 2 25.6 41.6 3.2 -9.68538
914 1 27.2 40 4.8 -11.7716
947 3 28.8 41.6 3.2 -11.2349
916 4 30.4 40 4.8 -13.3255
949 3 32 41.6 3.2 -11.2985
918 4 33.6 40 4.8 -13.2503
951 2 35.2 41.6 3.2 -9.84485
920 4 36.8 40 4.8 -13.2397
953 3 38.4 41.6 3.2 -11.1959
922 1 40 40 4.8 -11.7313
955 3 41.6 41.6 3.2 -11.1584
924 4 43.2 40 4.8 -13.2354
957 4 44.8 41.6 3.2 -13.3076
926 3 46.4 40 4.8 -11.2927
959 4 48 41.6 3.2 -13.3118
928 3 49.6 40 4.8 -11.3942
930 4 1.6 43.2 4.8 -13.2982
961 2 0 44.8 3.2 -9.83741
932 1 4.8 43.2 4.8 -11.7412
963 2 3.2 44.8 3.2 -9.75259
934 4 8 43.2 4.8 -13.3226
965 2 6.4 44.8 3.2 -9.71326
936 4 11.2 43.2 4.8 -13.3493
967 3 9.6 44.8 3.2 -11.1898
938 4 14.4 43.2 4.8 -13.3218
969 2 12.8 44.8 3.2 -9.84587
940 1 17.6 43.2 4.8 -11.7329
971 2 16 44.8 3.2 -9.78535
942 1 20.8 43.2 4.8 -11.7699
973 2 19.2 44.8 3.2 -9.81067
944 1 24 43.2 4.8 -11.7198
975 3 22.4 44.8 3.2 -11.2349
977 2 25.6 44.8 3.2 -9.74076
946 1 27.2 43.2 4.8 -11.7964
979 3 28.8 44.8 3.2 -11.2397
948 1 30.4 43.2 4.8 -11.8305
981 3 32 44.8 3.2 -11.24
950 4 33.6 43.2 4.8 -13.3044
983 3 35.2 44.8 3.2 -11.2339
952 4 36.8 43.2 4.8 -13.2638
985 2 38.4 44.8 3.2 -9.74418
954 1 40 43.2 4.8 -11.7142
987 2 41.6 44.8 3.2 -9.74582
956 4 43.2 43.2 4.8 -13.276
989 3 44.8 44.8 3.2 -11.1892
958 2 46.4 43.2 4.8 -9.84325
991 2 48 44.8 3.2 -9.8334
960 3 49.6 43.2 4.8 -11.318
962 2 1.6 46.4 4.8 -9.77261
993 2 0 48 3.2 -9.78442
964 1 4.8 46.4 4.8 -11.7325
995 3 3.2 48 3.2 -11.2312
966 1 8 46.4 4.8 -11.7247
997 3 6.4 48 3.2 -11.1235
968 4 11.2 46.4 4.8 -13.2384
999 2 9.6 48 3.2 -9.71441
970 4 14.4 46.4 4.8 -13.3015
1001 2 12.8 48 3.2 -9.75021
972 1 17.6 46.4 4.8 -11.7582
1003 3 16 48 3.2 -11.2385
974 4 20.8 46.4 4.8 -13.2857
1005 3 19.2 48 3.2 -11.1628
976 1 24 46.4 4.8 -11.8144
1007 3 22.4 48 3.2 -11.2402
1009 3 25.6 48 3.2 -11.2394
978 4 27.2 46.4 4.8 -13.3405
1011 3 28.8 48 3.2 -11.2759
980 1 30.4 46.4 4.8 -11.8258
1013 3 32 48 3.2 -11.2417
982 1 33.6 46.4 4.8 -11.8159
1015 3 35.2 48 3.2 -11.242
984 1 36.8 46.4 4.8 -11.77
1017 3 38.4 48 3.2 -11.2381
986 1 40 46.4 4.8 -11.7469
1019 3 41.6 48 3.2 -11.2736
988 4 43.2 46.4 4.8 -13.3339
1021 3 44.8 48 3.2 -11.1977
990 4 46.4 46.4 4.8 -13.265
1023 4 48 48 3.2 -13.1649
992 2 49.6 46.4 4.8 -9.81899
994 4 1.6 49.6 4.8 -13.3065
996 1 4.8 49.6 4.8 -11.7828
998 1 8 49.6 4.8 -11.7678
1000 1 11.2 49.6 4.8 -11.7538
1002 1 14.4 49.6 4.8 -11.809
1004 1 17.6 49.6 4.8 -11.812
1006 1 20.8 49.6 4.8 -11.7988
1008 1 24 49.6 4.8 -11.8122
1010 1 27.2 49.6 4.8 -11.8262
1012 1 30.4 49.6 4.8 -11.8122
1014 1 33.6 49.6 4.8 -11.8416
1016 1 36.8 49.6 4.8 -11.8558
1018 4 40 49.6 4.8 -13.3645
1020 1 43.2 49.6 4.8 -11.857
1022 1 46.4 49.6 4.8 -11.7577
1024 4 49.6 49.6 4.8 -13.3056
1025 3 0 0 6.4 -11.2671
1026 1 1.6 1.6 8 -11.8278
1027 3 3.2 0 6.4 -11.2402
1028 1 4.8 1.6 8 -11.8554
1029 3 6.4 0 6.4 -11.274
1030 1 8 1.6 8 -11.8694
1031 3 9.6 0 6.4 -11.2742
1032 1 11.2 1.6 8 -11.7904
1033 3 12.8 0 6.4 -11.1946
1034 4 14.4 1.6 8 -13.2999
1035 3 16 0 6.4 -11.3395
1036 4 17.6 1.6 8 -13.3619
1037 3 19.2 0 6.4 -11.2384
1038 1 20.8 1.6 8 -11.7971
1039 3 22.4 0 6.4 -11.1245
1040 1 24 1.6 8 -11.7703
1041 3 25.6 0 6.4 -11.1232
1042 1 27.2 1.6 8 -11.7589
1043 2 28.8 0 6.4 -9.76922
1044 4 30.4 1.6 8 -13.3358
1045 3 32 0 6.4 -11.2391
1046 1 33.6 1.6 8 -11.8692
1047 3 35.2 0 6.4 -11.2414
1048 1 36.8 1.6 8 -11.8276
1049 3 38.4 0 6.4 -11.2758
1050 1 40 1.6 8 -11.8039
1051 3 41.6 0 6.4 -11.2741
1052 1 43.2 1.6 8 -11.7726
1053 3 44.8 0 6.4 -11.2029
1054 1 46.4 1.6 8 -11.784
1055 3 48 0 6.4 -11.27
1056 4 49.6 1.6 8 -13.3462
1057 2 0 3.2 6.4 -9.74231
1058 1 1.6 4.8 8 -11.7845
1059 3 3.2 3.2 6.4 -11.2039
1060 1 4.8 4.8 8 -11.8417
1061 3 6.4 3.2 6.4 -11.2036
1062 1 8 4.8 8 -11.8555
1063 3 9.6 3.2 6.4 -11.2397
1064 4 11.2 4.8 8 -13.3325
1065 2 12.8 3.2 6.4 -9.80644
1066 4 14.4 4.8 8 -13.3292
1067 3 16 3.2 6.4 -11.235
1068 1 17.6 4.8 8 -11.7976
1069 3 19.2 3.2 6.4 -11.2729
1070 1 20.8 4.8 8 -11.8018
1071 2 22.4 3.2 6.4 -9.77966
1072 4 24 4.8 8 -13.2974
1073 2 25.6 3.2 6.4 -9.80523
1074 4 27.2 4.8 8 -13.3633
1075 3 28.8 3.2 6.4 -11.194
1076 4 30.4 4.8 8 -13.3509
1077 3 32 3.2 6.4 -11.2725
1078 1 33.6 4.8 8 -11.8133
1079 3 35.2 3.2 6.4 -11.2042
1080 1 36.8 4.8 8 -11.7735
1081 3 38.4 3.2 6.4 -11.2024
1082 4 40 4.8 8 -13.3346
1083 3 41.6 3.2 6.4 -11.2742
1084 4 43.2 4.8 8 -13.3372
1085 3 44.8 3.2 6.4 -11.1615
1086 1 46.4 4.8 8 -11.7632
1087 2 48 3.2 6.4 -9.71268
1088 1 49.6 4.8 8 -11.7077
1089 3 0 6.4 6.4 -11.0389
1090 1 1.6 8 8 -11.7415
1091 3 3.2 6.4 6.4 -11.2051
1092 1 4.8 8 8 -11.7807
1093 3 6.4 6.4 6.4 -11.2045
1094 1 8 8 8 -11.8281
1095 3 9.6 6.4 6.4 -11.2761
1096 1 11.2 8 8 -11.8436
1097 3 12.8 6.4 6.4 -11.2702
1098 4 14.4 8 8 -13.3816
1099 3 16 6.4 6.4 -11.3061
1100 4 17.6 8 8 -13.3333
1101 3 19.2 6.4 6.4 -11.2732
1102 1 20.8 8 8 -11.7763
1103 2 22.4 6.4 6.4 -9.8113
1104 4 24 8 8 -13.3095