ITEM: TIMESTEP
0
ITEM: NUMBER OF ATOMS
8192
ITEM: BOX BOUNDS pp pp pp
0.0000000000000000e+00 5.1200000000000003e+01
0.0000000000000000e+00 5.1200000000000003e+01
0.0000000000000000e+00 5.1200000000000003e+01
ITEM: ATOMS id type x y z c_eng
1 3 0 0 0 -11.1639
2 1 1.6 1.6 1.6 -11.826
3 3 3.2 0 0 -11.2761
4 4 4.8 1.6 1.6 -13.3394
5 3 6.4 0 0 -11.2381
6 1 8 1.6 1.6 -11.844
7 3 9.6 0 0 -11.2039
8 1 11.2 1.6 1.6 -11.8416
9 3 12.8 0 0 -11.242
10 1 14.4 1.6 1.6 -11.8417
11 3 16 0 0 -11.2039
12 1 17.6 1.6 1.6 -11.8416
13 3 19.2 0 0 -11.2039
14 1 20.8 1.6 1.6 -11.8416
15 3 22.4 0 0 -11.2417
16 1 24 1.6 1.6 -11.8558
17 3 25.6 0 0 -11.2417
18 1 27.2 1.6 1.6 -11.8414
19 3 28.8 0 0 -11.2414
20 1 30.4 1.6 1.6 -11.8558
21 3 32 0 0 -11.2414
22 1 33.6 1.6 1.6 -11.8415
23 3 35.2 0 0 -11.2417
24 1 36.8 1.6 1.6 -11.8416
25 3 38.4 0 0 -11.2036
26 1 40 1.6 1.6 -11.8123
27 3 41.6 0 0 -11.2045
28 1 43.2 1.6 1.6 -11.8123
29 3 44.8 0 0 -11.2036
30 1 46.4 1.6 1.6 -11.8558
31 3 48 0 0 -11.2429
32 1 49.6 1.6 1.6 -11.8122
33 3 0 3.2 0 -11.2758
34 1 1.6 4.8 1.6 -11.8555
35 3 3.2 3.2 0 -11.3084
36 1 4.8 4.8 1.6 -11.8305
37 3 6.4 3.2 0 -11.2005
38 1 8 4.8 1.6 -11.7996
39 3 9.6 3.2 0 -11.2042
40 1 11.2 4.8 1.6 -11.8416
41 3 12.8 3.2 0 -11.2423
42 1 14.4 4.8 1.6 -11.7808
43 3 16 3.2 0 -11.2021
44 1 17.6 4.8 1.6 -11.7682
45 3 19.2 3.2 0 -11.24
46 1 20.8 4.8 1.6 -11.7808
47 3 22.4 3.2 0 -11.2036
48 1 24 4.8 1.6 -11.8281
49 3 25.6 3.2 0 -11.2756
50 1 27.2 4.8 1.6 -11.8557
51 3 28.8 3.2 0 -11.2753
52 1 30.4 4.8 1.6 -11.812
53 3 32 3.2 0 -11.2417
54 1 33.6 4.8 1.6 -11.828
55 3 35.2 3.2 0 -11.2417
56 1 36.8 4.8 1.6 -11.8556
57 3 38.4 3.2 0 -11.2423
58 1 40 4.8 1.6 -11.7505
59 3 41.6 3.2 0 -11.1639
60 1 43.2 4.8 1.6 -11.7638
61 3 44.8 3.2 0 -11.2761
62 4 46.4 4.8 1.6 -13.365
63 3 48 3.2 0 -11.2376
64 1 49.6 4.8 1.6 -11.8556
65 3 0 6.4 0 -11.2756
66 1 1.6 8 1.6 -11.8256
67 3 3.2 6.4 0 -11.3047
68 4 4.8 8 1.6 -13.4047
69 2 6.4 6.4 0 -9.82974
70 4 8 8 1.6 -13.339
71 3 9.6 6.4 0 -11.2394
72 1 11.2 8 1.6 -11.8555
73 3 12.8 6.4 0 -11.2036
74 1 14.4 8 1.6 -11.8093
75 2 16 6.4 0 -9.77595
76 1 17.6 8 1.6 -11.7566
77 2 19.2 6.4 0 -9.75006
78 1 20.8 8 1.6 -11.7802
79 2 22.4 6.4 0 -9.74088
80 4 24 8 1.6 -13.3355
81 3 25.6 6.4 0 -11.2726
82 1 27.2 8 1.6 -11.8279
83 3 28.8 6.4 0 -11.2756
84 1 30.4 8 1.6 -11.8136
85 3 32 6.4 0 -11.2039
86 1 33.6 8 1.6 -11.814
87 3 35.2 6.4 0 -11.2036
88 1 36.8 8 1.6 -11.8273
89 3 38.4 6.4 0 -11.24
90 1 40 8 1.6 -11.7722
91 2 41.6 6.4 0 -9.74088
92 1 43.2 8 1.6 -11.7501
93 3 44.8 6.4 0 -11.2716
94 1 46.4 8 1.6 -11.8695
95 3 48 6.4 0 -11.3089
96 1 49.6 8 1.6 -11.8281
97 3 0 9.6 0 -11.2042
98 1 1.6 11.2 1.6 -11.7404
99 3 3.2 9.6 0 -11.3351
100 2 4.8 11.2 1.6 -9.79918
101 3 6.4 9.6 0 -11.2991
102 1 8 11.2 1.6 -11.7474
103 3 9.6 9.6 0 -11.2739
104 1 11.2 11.2 1.6 -11.7735
105 3 12.8 9.6 0 -11.2728
106 4 14.4 11.2 1.6 -13.3057
107 3 16 9.6 0 -11.2264
108 1 17.6 11.2 1.6 -11.7563
109 2 19.2 9.6 0 -9.79262
110 4 20.8 11.2 1.6 -13.3596
111 3 22.4 9.6 0 -11.2924
112 4 24 11.2 1.6 -13.3389
113 3 25.6 9.6 0 -11.2686
114 1 27.2 11.2 1.6 -11.7993
115 3 28.8 9.6 0 -11.2764
116 4 30.4 11.2 1.6 -13.3342
117 3 32 9.6 0 -11.24
118 1 33.6 11.2 1.6 -11.7534
119 3 35.2 9.6 0 -11.2426
120 1 36.8 11.2 1.6 -11.8456
121 3 38.4 9.6 0 -11.2381
122 1 40 11.2 1.6 -11.7577
123 3 41.6 9.6 0 -11.201
124 1 43.2 11.2 1.6 -11.735
125 3 44.8 9.6 0 -11.2761
126 1 46.4 11.2 1.6 -11.8312
127 3 48 9.6 0 -11.2761
128 1 49.6 11.2 1.6 -11.7672
129 3 0 12.8 0 -11.2625
130 4 1.6 14.4 1.6 -13.3209
131 2 3.2 12.8 0 -9.86306
132 3 4.8 14.4 1.6 -11.3453
133 2 6.4 12.8 0 -9.80707
134 2 8 14.4 1.6 -9.76545
135 2 9.6 12.8 0 -9.73636
136 4 11.2 14.4 1.6 -13.271
137 4 12.8 12.8 0 -13.2645
138 4 14.4 14.4 1.6 -13.3018
139 4 16 12.8 0 -13.29
140 4 17.6 14.4 1.6 -13.3191
141 4 19.2 12.8 0 -13.2545
142 2 20.8 14.4 1.6 -9.85984
143 3 22.4 12.8 0 -11.2049
144 4 24 14.4 1.6 -13.2656
145 3 25.6 12.8 0 -11.2991
146 4 27.2 14.4 1.6 -13.3277
147 3 28.8 12.8 0 -11.3331
148 4 30.4 14.4 1.6 -13.319
149 3 32 12.8 0 -11.2334
150 1 33.6 14.4 1.6 -11.6894
151 3 35.2 12.8 0 -11.199
152 4 36.8 14.4 1.6 -13.3453
153 3 38.4 12.8 0 -11.3084
154 1 40 14.4 1.6 -11.761
155 3 41.6 12.8 0 -11.2002
156 1 43.2 14.4 1.6 -11.6881
157 3 44.8 12.8 0 -11.2016
158 4 46.4 14.4 1.6 -13.3068
159 3 48 12.8 0 -11.2703
160 4 49.6 14.4 1.6 -13.3153
161 2 0 16 0 -9.87412
162 2 1.6 17.6 1.6 -9.84627
163 4 3.2 16 0 -13.3603
164 3 4.8 17.6 1.6 -11.3001
165 1 6.4 16 0 -11.7947
166 3 8 17.6 1.6 -11.2717
167 1 9.6 16 0 -11.749
168 3 11.2 17.6 1.6 -11.2614
169 4 12.8 16 0 -13.3198
170 2 14.4 17.6 1.6 -9.90818
171 4 16 16 0 -13.3216
172 4 17.6 17.6 1.6 -13.3186
173 4 19.2 16 0 -13.3332
174 4 20.8 17.6 1.6 -13.3772
175 4 22.4 16 0 -13.247
176 4 24 17.6 1.6 -13.3116
177 4 25.6 16 0 -13.2018
178 2 27.2 17.6 1.6 -9.80909
179 2 28.8 16 0 -9.86683
180 2 30.4 17.6 1.6 -9.86068
181 2 32 16 0 -9.78777
182 4 33.6 17.6 1.6 -13.3121
183 4 35.2 16 0 -13.2691
184 4 36.8 17.6 1.6 -13.2921
185 3 38.4 16 0 -11.2643
186 1 40 17.6 1.6 -11.7135
187 3 41.6 16 0 -11.1859
188 4 43.2 17.6 1.6 -13.2762
189 4 44.8 16 0 -13.2904
190 2 46.4 17.6 1.6 -9.70089
191 3 48 16 0 -11.2002
192 4 49.6 17.6 1.6 -13.3226
193 4 0 19.2 0 -13.3948
194 3 1.6 20.8 1.6 -11.3318
195 1 3.2 19.2 0 -11.8723
196 3 4.8 20.8 1.6 -11.3397
197 4 6.4 19.2 0 -13.3634
198 3 8 20.8 1.6 -11.2761
199 1 9.6 19.2 0 -11.8693
200 3 11.2 20.8 1.6 -11.2748
201 1 12.8 19.2 0 -11.8722
202 3 14.4 20.8 1.6 -11.2944
203 4 16 19.2 0 -13.334
204 4 17.6 20.8 1.6 -13.2797
205 4 19.2 19.2 0 -13.3042
206 1 20.8 20.8 1.6 -11.7396
207 2 22.4 19.2 0 -9.83216
208 2 24 20.8 1.6 -9.85164
209 4 25.6 19.2 0 -13.3107
210 4 27.2 20.8 1.6 -13.2803
211 4 28.8 19.2 0 -13.3083
212 2 30.4 20.8 1.6 -9.8957
213 2 32 19.2 0 -9.83537
214 2 33.6 20.8 1.6 -9.837
215 3 35.2 19.2 0 -11.2875
216 2 36.8 20.8 1.6 -9.88708
217 4 38.4 19.2 0 -13.3164
218 2 40 20.8 1.6 -9.79512
219 2 41.6 19.2 0 -9.78104
220 3 43.2 20.8 1.6 -11.2257
221 4 44.8 19.2 0 -13.2673
222 2 46.4 20.8 1.6 -9.74982
223 1 48 19.2 0 -11.7707
224 3 49.6 20.8 1.6 -11.2638
225 4 0 22.4 0 -13.3828
226 3 1.6 24 1.6 -11.2733
227 1 3.2 22.4 0 -11.8695
228 3 4.8 24 1.6 -11.2761
229 1 6.4 22.4 0 -11.8557
230 3 8 24 1.6 -11.2042
231 1 9.6 22.4 0 -11.8415
232 3 11.2 24 1.6 -11.2048
233 1 12.8 22.4 0 -11.8411
234 3 14.4 24 1.6 -11.2697
235 1 16 22.4 0 -11.8144
236 2 17.6 24 1.6 -9.84068
237 1 19.2 22.4 0 -11.6714
238 4 20.8 24 1.6 -13.2813
239 2 22.4 22.4 0 -9.80989
240 2 24 24 1.6 -9.88032
241 2 25.6 22.4 0 -9.78452
242 4 27.2 24 1.6 -13.289
243 4 28.8 22.4 0 -13.2999
244 3 30.4 24 1.6 -11.2805
245 1 32 22.4 0 -11.7943
246 3 33.6 24 1.6 -11.2872
247 4 35.2 22.4 0 -13.376
248 2 36.8 24 1.6 -9.8447
249 4 38.4 22.4 0 -13.2903
250 2 40 24 1.6 -9.78548
251 1 41.6 22.4 0 -11.7517
252 3 43.2 24 1.6 -11.1606
253 1 44.8 22.4 0 -11.7864
254 3 46.4 24 1.6 -11.2402
255 1 48 22.4 0 -11.8414
256 3 49.6 24 1.6 -11.2733
257 1 0 25.6 0 -11.8558
259 1 3.2 25.6 0 -11.8122
261 1 6.4 25.6 0 -11.781
263 1 9.6 25.6 0 -11.8124
265 1 12.8 25.6 0 -11.8557
267 4 16 25.6 0 -13.359
269 4 19.2 25.6 0 -13.3434
271 2 22.4 25.6 0 -9.86451
273 1 25.6 25.6 0 -11.7821
275 4 28.8 25.6 0 -13.3038
277 4 32 25.6 0 -13.3261
279 4 35.2 25.6 0 -13.2851
281 4 38.4 25.6 0 -13.2692
283 1 41.6 25.6 0 -11.7477
285 1 44.8 25.6 0 -11.7503
287 1 48 25.6 0 -11.8415
258 3 1.6 27.2 1.6 -11.242
289 1 0 28.8 0 -11.8417
260 3 4.8 27.2 1.6 -11.2381
291 1 3.2 28.8 0 -11.8122
262 3 8 27.2 1.6 -11.2019
293 1 6.4 28.8 0 -11.7942
264 3 11.2 27.2 1.6 -11.2048
295 1 9.6 28.8 0 -11.8
266 3 14.4 27.2 1.6 -11.2367
297 1 12.8 28.8 0 -11.8122
268 2 17.6 27.2 1.6 -9.81111
299 1 16 28.8 0 -11.8278
270 3 20.8 27.2 1.6 -11.3237
301 1 19.2 28.8 0 -11.8134
272 3 24 27.2 1.6 -11.2936
303 1 22.4 28.8 0 -11.8079
305 1 25.6 28.8 0 -11.8011
274 3 27.2 27.2 1.6 -11.2363
307 1 28.8 28.8 0 -11.8151
276 2 30.4 27.2 1.6 -9.80378
309 1 32 28.8 0 -11.7093
278 2 33.6 27.2 1.6 -9.78278
311 1 35.2 28.8 0 -11.6495
280 2 36.8 27.2 1.6 -9.76796
313 4 38.4 28.8 0 -13.2227
282 3 40 27.2 1.6 -11.2079
315 2 41.6 28.8 0 -9.7125
284 2 43.2 27.2 1.6 -9.78573
317 1 44.8 28.8 0 -11.7549
286 3 46.4 27.2 1.6 -11.2405
319 1 48 28.8 0 -11.8121
288 3 49.6 27.2 1.6 -11.2417
290 3 1.6 30.4 1.6 -11.2414
321 1 0 32 0 -11.8414
292 3 4.8 30.4 1.6 -11.2759
323 1 3.2 32 0 -11.8557
294 3 8 30.4 1.6 -11.2734
325 1 6.4 32 0 -11.8281
296 3 11.2 30.4 1.6 -11.1638
327 4 9.6 32 0 -13.2201
298 3 14.4 30.4 1.6 -11.2399
329 1 12.8 32 0 -11.6937
300 3 17.6 30.4 1.6 -11.2664
331 1 16 32 0 -11.7979
302 3 20.8 30.4 1.6 -11.1952
333 4 19.2 32 0 -13.3079
304 2 24 30.4 1.6 -9.80652
335 1 22.4 32 0 -11.7798
337 4 25.6 32 0 -13.3536
306 3 27.2 30.4 1.6 -11.2302
339 2 28.8 32 0 -9.81321
308 2 30.4 30.4 1.6 -9.74924
341 4 32 32 0 -13.2822
310 2 33.6 30.4 1.6 -9.67355
343 2 35.2 32 0 -9.78549
312 1 36.8 30.4 1.6 -11.6256
345 2 38.4 32 0 -9.70218
314 4 40 30.4 1.6 -13.1981
347 1 41.6 32 0 -11.5567
316 4 43.2 30.4 1.6 -13.2242
349 4 44.8 32 0 -13.1824
318 3 46.4 30.4 1.6 -11.1566
351 1 48 32 0 -11.7577
320 3 49.6 30.4 1.6 -11.2423
322 3 1.6 33.6 1.6 -11.2414
353 1 0 35.2 0 -11.8693
324 3 4.8 33.6 1.6 -11.2036
355 1 3.2 35.2 0 -11.8695
326 2 8 33.6 1.6 -9.72062
357 1 6.4 35.2 0 -11.7958
328 4 11.2 33.6 1.6 -13.1617
359 1 9.6 35.2 0 -11.7593
330 4 14.4 33.6 1.6 -13.1479
361 4 12.8 35.2 0 -13.1861
332 2 17.6 33.6 1.6 -9.79195
363 1 16 35.2 0 -11.6708
334 4 20.8 33.6 1.6 -13.2143
365 4 19.2 35.2 0 -13.3314
336 2 24 33.6 1.6 -9.79265
367 4 22.4 35.2 0 -13.267
369 4 25.6 35.2 0 -13.316
338 2 27.2 33.6 1.6 -9.92011
371 4 28.8 35.2 0 -13.3945
340 2 30.4 33.6 1.6 -9.79005
373 4 32 35.2 0 -13.3202
342 4 33.6 33.6 1.6 -13.3145
375 3 35.2 35.2 0 -11.3529
344 4 36.8 33.6 1.6 -13.2986
377 3 38.4 35.2 0 -11.3025
346 1 40 33.6 1.6 -11.7267
379 3 41.6 35.2 0 -11.2212
348 2 43.2 33.6 1.6 -9.77319
381 3 44.8 35.2 0 -11.238
350 4 46.4 33.6 1.6 -13.2862
383 4 48 35.2 0 -13.3405
352 3 49.6 33.6 1.6 -11.202
354 3 1.6 36.8 1.6 -11.2759
385 1 0 38.4 0 -11.8721
356 3 4.8 36.8 1.6 -11.2714
387 4 3.2 38.4 0 -13.3326
358 2 8 36.8 1.6 -9.79035
389 4 6.4 38.4 0 -13.3348
360 3 11.2 36.8 1.6 -11.2076
391 4 9.6 38.4 0 -13.3295
362 4 14.4 36.8 1.6 -13.2008
393 1 12.8 38.4 0 -11.7203
364 4 17.6 36.8 1.6 -13.287
395 1 16 38.4 0 -11.6709
366 2 20.8 36.8 1.6 -9.76575
397 4 19.2 38.4 0 -13.2041
368 2 24 36.8 1.6 -9.76595
399 1 22.4 38.4 0 -11.66
401 4 25.6 38.4 0 -13.2706
370 2 27.2 36.8 1.6 -9.83876
403 2 28.8 38.4 0 -9.76065
372 4 30.4 36.8 1.6 -13.2865
405 2 32 38.4 0 -9.72878
374 4 33.6 36.8 1.6 -13.2923
407 3 35.2 38.4 0 -11.2616
376 1 36.8 36.8 1.6 -11.8704
409 3 38.4 38.4 0 -11.3027
378 1 40 36.8 1.6 -11.8106
411 3 41.6 38.4 0 -11.2664
380 4 43.2 36.8 1.6 -13.3746
413 2 44.8 38.4 0 -9.85125
382 2 46.4 36.8 1.6 -9.78766
415 4 48 38.4 0 -13.3272
384 3 49.6 36.8 1.6 -11.274
386 3 1.6 40 1.6 -11.3253
417 4 0 41.6 0 -13.3109
388 2 4.8 40 1.6 -9.8404
419 2 3.2 41.6 0 -9.88284
390 4 8 40 1.6 -13.2506
421 2 6.4 41.6 0 -9.82111
392 4 11.2 40 1.6 -13.3084
423 2 9.6 41.6 0 -9.85869
394 4 14.4 40 1.6 -13.2871
425 2 12.8 41.6 0 -9.83534
396 2 17.6 40 1.6 -9.80997
427 2 16 41.6 0 -9.85365
398 1 20.8 40 1.6 -11.6635
429 4 19.2 41.6 0 -13.3576
400 1 24 40 1.6 -11.6549
431 3 22.4 41.6 0 -11.2093
433 3 25.6 41.6 0 -11.26
402 1 27.2 40 1.6 -11.716
435 3 28.8 41.6 0 -11.2027
404 1 30.4 40 1.6 -11.6959
437 2 32 41.6 0 -9.64793
406 1 33.6 40 1.6 -11.7122
439 3 35.2 41.6 0 -11.2336
408 4 36.8 40 1.6 -13.328
441 3 38.4 41.6 0 -11.3076
410 1 40 40 1.6 -11.8417
443 3 41.6 41.6 0 -11.2775
412 4 43.2 40 1.6 -13.3056
445 3 44.8 41.6 0 -11.1865
414 4 46.4 40 1.6 -13.294
447 4 48 41.6 0 -13.3575
416 3 49.6 40 1.6 -11.2646
418 4 1.6 43.2 1.6 -13.258
449 4 0 44.8 0 -13.2057
420 1 4.8 43.2 1.6 -11.7893
451 3 3.2 44.8 0 -11.2873
422 1 8 43.2 1.6 -11.7999
453 3 6.4 44.8 0 -11.3327
424 4 11.2 43.2 1.6 -13.3215
455 3 9.6 44.8 0 -11.3349
426 2 14.4 43.2 1.6 -9.84482
457 2 12.8 44.8 0 -9.86956
428 4 17.6 43.2 1.6 -13.3521
459 2 16 44.8 0 -9.77697
430 2 20.8 43.2 1.6 -9.78763
461 4 19.2 44.8 0 -13.1733
432 1 24 43.2 1.6 -11.8222
463 3 22.4 44.8 0 -11.2978
465 3 25.6 44.8 0 -11.2734
434 1 27.2 43.2 1.6 -11.8122
467 3 28.8 44.8 0 -11.2759
436 1 30.4 43.2 1.6 -11.7808
469 3 32 44.8 0 -11.2381
438 1 33.6 43.2 1.6 -11.7508
471 3 35.2 44.8 0 -11.242
440 1 36.8 43.2 1.6 -11.8281
473 3 38.4 44.8 0 -11.242
442 1 40 43.2 1.6 -11.8278
475 3 41.6 44.8 0 -11.1648
444 1 43.2 43.2 1.6 -11.7923
477 3 44.8 44.8 0 -11.2316
446 4 46.4 43.2 1.6 -13.2642
479 3 48 44.8 0 -11.2232
448 4 49.6 43.2 1.6 -13.2636
450 4 1.6 46.4 1.6 -13.2852
481 2 0 48 0 -9.6845
452 4 4.8 46.4 1.6 -13.3777
483 3 3.2 48 0 -11.2722
454 4 8 46.4 1.6 -13.402
485 3 6.4 48 0 -11.3073
456 1 11.2 46.4 1.6 -11.8589
487 3 9.6 48 0 -11.3091
458 4 14.4 46.4 1.6 -13.3005
489 3 12.8 48 0 -11.2379
460 1 17.6 46.4 1.6 -11.631
491 2 16 48 0 -9.71316
462 1 20.8 46.4 1.6 -11.7187
493 2 19.2 48 0 -9.61251
464 1 24 46.4 1.6 -11.8555
495 3 22.4 48 0 -11.239
497 3 25.6 48 0 -11.2394
466 1 27.2 46.4 1.6 -11.8415
499 3 28.8 48 0 -11.2756
468 1 30.4 46.4 1.6 -11.8558
501 3 32 48 0 -11.2753
470 1 33.6 46.4 1.6 -11.8416
503 3 35.2 48 0 -11.2414
472 1 36.8 46.4 1.6 -11.8416
505 3 38.4 48 0 -11.2039
474 1 40 46.4 1.6 -11.768
507 2 41.6 48 0 -9.67676
476 1 43.2 46.4 1.6 -11.7097
509 2 44.8 48 0 -9.7411
478 1 46.4 46.4 1.6 -11.7737
511 3 48 48 0 -11.1613
480 1 49.6 46.4 1.6 -11.7183
482 1 1.6 49.6 1.6 -11.7677
484 1 4.8 49.6 1.6 -11.8701
486 1 8 49.6 1.6 -11.8554
488 1 11.2 49.6 1.6 -11.8413
490 1 14.4 49.6 1.6 -11.8282
492 1 17.6 49.6 1.6 -11.7509
494 1 20.8 49.6 1.6 -11.7811
496 1 24 49.6 1.6 -11.8415
498 1 27.2 49.6 1.6 -11.8417
500 1 30.4 49.6 1.6 -11.8415
502 1 33.6 49.6 1.6 -11.8417
504 1 36.8 49.6 1.6 -11.8416
506 1 40 49.6 1.6 -11.7965
508 1 43.2 49.6 1.6 -11.7508
510 1 46.4 49.6 1.6 -11.7842
512 1 49.6 49.6 1.6 -11.741
513 2 0 0 3.2 -9.74244
514 1 1.6 1.6 4.8 -11.812
515 3 3.2 0 3.2 -11.2384
516 1 4.8 1.6 4.8 -11.8312
517 3 6.4 0 3.2 -11.2748
518 4 8 1.6 4.8 -13.282
519 3 9.6 0 3.2 -11.2759
520 1 11.2 1.6 4.8 -11.7965
521 3 12.8 0 3.2 -11.2417
522 1 14.4 1.6 4.8 -11.8281
523 3 16 0 3.2 -11.242
524 1 17.6 1.6 4.8 -11.8556
525 3 19.2 0 3.2 -11.2036
526 1 20.8 1.6 4.8 -11.8281
527 3 22.4 0 3.2 -11.2761
528 4 24 1.6 4.8 -13.2825
529 3 25.6 0 3.2 -11.2394
530 1 27.2 1.6 4.8 -11.8123
531 3 28.8 0 3.2 -11.2756
532 4 30.4 1.6 4.8 -13.365
533 3 32 0 3.2 -11.2753
534 1 33.6 1.6 4.8 -11.8696
535 3 35.2 0 3.2 -11.2414
536 1 36.8 1.6 4.8 -11.8556
537 3 38.4 0 3.2 -11.2759
538 1 40 1.6 4.8 -11.826
539 3 41.6 0 3.2 -11.2014
540 1 43.2 1.6 4.8 -11.8122
541 3 44.8 0 3.2 -11.2429
542 1 46.4 1.6 4.8 -11.8413
543 3 48 0 3.2 -11.2018
544 1 49.6 1.6 4.8 -11.8419
545 3 0 3.2 3.2 -11.2033
546 1 1.6 4.8 4.8 -11.8557
547 3 3.2 3.2 3.2 -11.2748
548 4 4.8 4.8 4.8 -13.3101
549 2 6.4 3.2 3.2 -9.80829
550 1 8 4.8 4.8 -11.7567
551 3 9.6 3.2 3.2 -11.2023
552 1 11.2 4.8 4.8 -11.7506
553 3 12.8 3.2 3.2 -11.2039
554 1 14.4 4.8 4.8 -11.7582
555 3 16 3.2 3.2 -11.2045
556 1 17.6 4.8 4.8 -11.7639
557 3 19.2 3.2 3.2 -11.2423
558 1 20.8 4.8 4.8 -11.8122
559 3 22.4 3.2 3.2 -11.2397
560 1 24 4.8 4.8 -11.7986
561 3 25.6 3.2 3.2 -11.2397
562 1 27.2 4.8 4.8 -11.8017
563 3 28.8 3.2 3.2 -11.2761
564 1 30.4 4.8 4.8 -11.7668
565 3 32 3.2 3.2 -11.2733
566 4 33.6 4.8 4.8 -13.3557
567 3 35.2 3.2 3.2 -11.3073
568 4 36.8 4.8 4.8 -13.3544
569 3 38.4 3.2 3.2 -11.2381
570 1 40 4.8 4.8 -11.8001
571 2 41.6 3.2 3.2 -9.70671
572 1 43.2 4.8 4.8 -11.7804
573 3 44.8 3.2 3.2 -11.2378
574 1 46.4 4.8 4.8 -11.8701
575 3 48 3.2 3.2 -11.2756
576 1 49.6 4.8 4.8 -11.8554
577 3 0 6.4 3.2 -11.2394
578 1 1.6 8 4.8 -11.7983
579 3 3.2 6.4 3.2 -11.3097
580 1 4.8 8 4.8 -11.8091
581 3 6.4 6.4 3.2 -11.233
582 1 8 8 4.8 -11.7351
583 3 9.6 6.4 3.2 -11.239
584 1 11.2 8 4.8 -11.7942
585 3 12.8 6.4 3.2 -11.2405
586 4 14.4 8 4.8 -13.2813
587 2 16 6.4 3.2 -9.68742
588 1 17.6 8 4.8 -11.7664
589 3 19.2 6.4 3.2 -11.1651
590 1 20.8 8 4.8 -11.8555
591 3 22.4 6.4 3.2 -11.24
592 1 24 8 4.8 -11.7958
593 3 25.6 6.4 3.2 -11.2402
594 1 27.2 8 4.8 -11.7726
595 3 28.8 6.4 3.2 -11.2029
596 4 30.4 8 4.8 -13.2937
597 2 32 6.4 3.2 -9.78385
598 2 33.6 8 4.8 -9.80773
599 3 35.2 6.4 3.2 -11.3323
600 4 36.8 8 4.8 -13.4147
601 3 38.4 6.4 3.2 -11.2678
602 2 40 8 4.8 -9.7646
603 2 41.6 6.4 3.2 -9.71757
604 1 43.2 8 4.8 -11.763
605 3 44.8 6.4 3.2 -11.2387
606 1 46.4 8 4.8 -11.8185
607 3 48 6.4 3.2 -11.3087
608 4 49.6 8 4.8 -13.2783
609 2 0 9.6 3.2 -9.71304
610 1 1.6 11.2 4.8 -11.7098
611 3 3.2 9.6 3.2 -11.1931
612 1 4.8 11.2 4.8 -11.7354
613 2 6.4 9.6 3.2 -9.77696
614 1 8 11.2 4.8 -11.6422
615 3 9.6 9.6 3.2 -11.1604
616 1 11.2 11.2 4.8 -11.7749
617 3 12.8 9.6 3.2 -11.3102
618 1 14.4 11.2 4.8 -11.807
619 3 16 9.6 3.2 -11.2746
620 1 17.6 11.2 4.8 -11.8409
621 3 19.2 9.6 3.2 -11.2725
622 4 20.8 11.2 4.8 -13.351
623 3 22.4 9.6 3.2 -11.2663
624 1 24 11.2 4.8 -11.6625
625 2 25.6 9.6 3.2 -9.74439
626 1 27.2 11.2 4.8 -11.6478
627 3 28.8 9.6 3.2 -11.2282
628 2 30.4 11.2 4.8 -9.8047
629 2 32 9.6 3.2 -9.84427
630 4 33.6 11.2 4.8 -13.2817
631 3 35.2 9.6 3.2 -11.2925
632 3 36.8 11.2 4.8 -11.2288
633 2 38.4 9.6 3.2 -9.86393
634 2 40 11.2 4.8 -9.78467
635 2 41.6 9.6 3.2 -9.73048
636 4 43.2 11.2 4.8 -13.2281
637 3 44.8 9.6 3.2 -11.2342
638 2 46.4 11.2 4.8 -9.76003
639 3 48 9.6 3.2 -11.1994
640 1 49.6 11.2 4.8 -11.7004
641 2 0 12.8 3.2 -9.72771
642 2 1.6 14.4 4.8 -9.87989
643 4 3.2 12.8 3.2 -13.3236
644 3 4.8 14.4 4.8 -11.2888
645 4 6.4 12.8 3.2 -13.245
646 4 8 14.4 4.8 -13.3311
647 2 9.6 12.8 3.2 -9.75875
648 4 11.2 14.4 4.8 -13.3024
649 3 12.8 12.8 3.2 -11.1922
650 1 14.4 14.4 4.8 -11.747
651 3 16 12.8 3.2 -11.2316
652 4 17.6 14.4 4.8 -13.3626
653 3 19.2 12.8 3.2 -11.323
654 4 20.8 14.4 4.8 -13.3828
655 4 22.4 12.8 3.2 -13.2956
656 1 24 14.4 4.8 -11.7101
657 2 25.6 12.8 3.2 -9.69707
658 2 27.2 14.4 4.8 -9.70312
659 2 28.8 12.8 3.2 -9.79287
660 2 30.4 14.4 4.8 -9.76218
661 4 32 12.8 3.2 -13.2214
662 2 33.6 14.4 4.8 -9.76067
663 2 35.2 12.8 3.2 -9.83363
664 2 36.8 14.4 4.8 -9.84465
665 3 38.4 12.8 3.2 -11.3087
666 2 40 14.4 4.8 -9.80795
667 4 41.6 12.8 3.2 -13.1522
668 2 43.2 14.4 4.8 -9.75857
669 2 44.8 12.8 3.2 -9.81379
670 2 46.4 14.4 4.8 -9.86655
671 2 48 12.8 3.2 -9.81774
672 2 49.6 14.4 4.8 -9.81934
673 4 0 16 3.2 -13.2619
674 2 1.6 17.6 4.8 -9.79299
675 4 3.2 16 3.2 -13.3427
676 4 4.8 17.6 4.8 -13.3133
677 4 6.4 16 3.2 -13.2941
678 2 8 17.6 4.8 -9.78869
679 4 9.6 16 3.2 -13.3085
680 4 11.2 17.6 4.8 -13.3865
681 2 12.8 16 3.2 -9.88728
682 2 14.4 17.6 4.8 -9.81055
683 2 16 16 3.2 -9.84866
684 4 17.6 17.6 4.8 -13.3442
685 3 19.2 16 3.2 -11.4074
686 4 20.8 17.6 4.8 -13.4197
687 3 22.4 16 3.2 -11.2482
688 1 24 17.6 4.8 -11.8136
689 2 25.6 16 3.2 -9.82229
690 1 27.2 17.6 4.8 -11.7075
691 4 28.8 16 3.2 -13.2803
692 2 30.4 17.6 4.8 -9.7894
693 2 32 16 3.2 -9.80919
694 2 33.6 17.6 4.8 -9.78908
695 2 35.2 16 3.2 -9.8213
696 4 36.8 17.6 4.8 -13.254
697 3 38.4 16 3.2 -11.2756
698 3 40 17.6 4.8 -11.2294
699 4 41.6 16 3.2 -13.2702
700 3 43.2 17.6 4.8 -11.2601
701 2 44.8 16 3.2 -9.7718
702 2 46.4 17.6 4.8 -9.81469
703 4 48 16 3.2 -13.3277
704 3 49.6 17.6 4.8 -11.1932
705 4 0 19.2 3.2 -13.3031
706 2 1.6 20.8 4.8 -9.86975
707 4 3.2 19.2 3.2 -13.3268
708 3 4.8 20.8 4.8 -11.2566
709 1 6.4 19.2 3.2 -11.8139
710 3 8 20.8 4.8 -11.2923
711 1 9.6 19.2 3.2 -11.8067
712 2 11.2 20.8 4.8 -9.79216
713 2 12.8 19.2 3.2 -9.84656
714 4 14.4 20.8 4.8 -13.2537
715 2 16 19.2 3.2 -9.88607
716 1 17.6 20.8 4.8 -11.788
717 3 19.2 19.2 3.2 -11.2981
718 1 20.8 20.8 4.8 -11.8081
719 3 22.4 19.2 3.2 -11.3326
720 1 24 20.8 4.8 -11.8185
721 3 25.6 19.2 3.2 -11.2603
722 1 27.2 20.8 4.8 -11.7523
723 2 28.8 19.2 3.2 -9.83946
724 2 30.4 20.8 4.8 -9.78927
725 4 32 19.2 3.2 -13.3402
726 4 33.6 20.8 4.8 -13.2068
727 2 35.2 19.2 3.2 -9.81109
728 2 36.8 20.8 4.8 -9.78808
729 4 38.4 19.2 3.2 -13.3005
730 3 40 20.8 4.8 -11.2974
731 4 41.6 19.2 3.2 -13.3242
732 3 43.2 20.8 4.8 -11.3315
733 1 44.8 19.2 3.2 -11.7464
734 2 46.4 20.8 4.8 -9.80722
735 1 48 19.2 3.2 -11.7083
736 3 49.6 20.8 4.8 -11.2299
737 1 0 22.4 3.2 -11.8293
738 2 1.6 24 4.8 -9.75363
739 4 3.2 22.4 3.2 -13.355
740 3 4.8 24 4.8 -11.3018
741 1 6.4 22.4 3.2 -11.8412
742 2 8 24 4.8 -9.83239
743 1 9.6 22.4 3.2 -11.7872
744 2 11.2 24 4.8 -9.75587
745 1 12.8 22.4 3.2 -11.7414
746 4 14.4 24 4.8 -13.2318
747 2 16 22.4 3.2 -9.80584
748 4 17.6 24 4.8 -13.3243
749 3 19.2 22.4 3.2 -11.19
750 1 20.8 24 4.8 -11.7563
751 2 22.4 22.4 3.2 -9.83838
752 2 24 24 4.8 -9.82019
753 2 25.6 22.4 3.2 -9.86791
754 4 27.2 24 4.8 -13.3169
755 2 28.8 22.4 3.2 -9.80253
756 2 30.4 24 4.8 -9.81941
757 4 32 22.4 3.2 -13.2792
758 4 33.6 24 4.8 -13.3088
759 4 35.2 22.4 3.2 -13.3182
760 3 36.8 24 4.8 -11.2201
761 4 38.4 22.4 3.2 -13.2946
762 2 40 24 4.8 -9.81791
763 4 41.6 22.4 3.2 -13.3491
764 3 43.2 24 4.8 -11.2959
765 1 44.8 22.4 3.2 -11.8267
766 3 46.4 24 4.8 -11.3011
767 4 48 22.4 3.2 -13.3089
768 2 49.6 24 4.8 -9.80379
769 1 0 25.6 3.2 -11.7804
771 1 3.2 25.6 3.2 -11.8438
773 1 6.4 25.6 3.2 -11.7959
775 1 9.6 25.6 3.2 -11.7592
777 1 12.8 25.6 3.2 -11.7453
779 4 16 25.6 3.2 -13.3322
781 2 19.2 25.6 3.2 -9.83551
783 2 22.4 25.6 3.2 -9.85893
785 4 25.6 25.6 3.2 -13.351
787 4 28.8 25.6 3.2 -13.3563
789 4 32 25.6 3.2 -13.3497
791 4 35.2 25.6 3.2 -13.3282
793 1 38.4 25.6 3.2 -11.7352
795 1 41.6 25.6 3.2 -11.75
797 1 44.8 25.6 3.2 -11.813
799 1 48 25.6 3.2 -11.828
770 3 1.6 27.2 4.8 -11.2403
801 1 0 28.8 3.2 -11.8417
772 3 4.8 27.2 4.8 -11.2732
803 1 3.2 28.8 3.2 -11.8556
774 2 8 27.2 4.8 -9.75712
805 4 6.4 28.8 3.2 -13.3405
776 2 11.2 27.2 4.8 -9.75454
807 1 9.6 28.8 3.2 -11.7961
778 2 14.4 27.2 4.8 -9.80915
809 1 12.8 28.8 3.2 -11.7801
780 4 17.6 27.2 4.8 -13.2702
811 1 16 28.8 3.2 -11.7688
782 2 20.8 27.2 4.8 -9.79241
813 1 19.2 28.8 3.2 -11.7567
784 2 24 27.2 4.8 -9.86723
815 1 22.4 28.8 3.2 -11.8165
817 1 25.6 28.8 3.2 -11.8148
786 3 27.2 27.2 4.8 -11.2647
819 1 28.8 28.8 3.2 -11.7955
788 3 30.4 27.2 4.8 -11.3027
821 1 32 28.8 3.2 -11.751
790 3 33.6 27.2 4.8 -11.2935
823 4 35.2 28.8 3.2 -13.1947
792 2 36.8 27.2 4.8 -9.7931
825 2 38.4 28.8 3.2 -9.72795
794 4 40 27.2 4.8 -13.2219
827 2 41.6 28.8 3.2 -9.78216
796 2 43.2 27.2 4.8 -9.82129
829 4 44.8 28.8 3.2 -13.3041
798 3 46.4 27.2 4.8 -11.2709
831 1 48 28.8 3.2 -11.8556
800 3 49.6 27.2 4.8 -11.2039
802 3 1.6 30.4 4.8 -11.2394
833 1 0 32 3.2 -11.8416
804 3 4.8 30.4 4.8 -11.2729
835 1 3.2 32 3.2 -11.8557
806 3 8 30.4 4.8 -11.2734
837 1 6.4 32 3.2 -11.8257
808 3 11.2 30.4 4.8 -11.2401
839 1 9.6 32 3.2 -11.7981
810 3 14.4 30.4 4.8 -11.2289
841 1 12.8 32 3.2 -11.7313
812 2 17.6 30.4 4.8 -9.82464
843 2 16 32 3.2 -9.77918
814 3 20.8 30.4 4.8 -11.2229
845 4 19.2 32 3.2 -13.2911
816 3 24 30.4 4.8 -11.2282
847 4 22.4 32 3.2 -13.2321
849 4 25.6 32 3.2 -13.3315
818 3 27.2 30.4 4.8 -11.3115
851 1 28.8 32 3.2 -11.7932
820 3 30.4 30.4 4.8 -11.1605
853 1 32 32 3.2 -11.6908
822 3 33.6 30.4 4.8 -11.291
855 4 35.2 32 3.2 -13.2726
824 1 36.8 30.4 4.8 -11.6485
857 3 38.4 32 3.2 -11.078
826 1 40 30.4 4.8 -11.6268
859 2 41.6 32 3.2 -9.73508
828 4 43.2 30.4 4.8 -13.2885
861 4 44.8 32 3.2 -13.3261
830 3 46.4 30.4 4.8 -11.3047
863 1 48 32 3.2 -11.7974
832 3 49.6 30.4 4.8 -11.2417
834 3 1.6 33.6 4.8 -11.2759
865 1 0 35.2 3.2 -11.8416
836 3 4.8 33.6 4.8 -11.2405
867 1 3.2 35.2 3.2 -11.8413
838 3 8 33.6 4.8 -11.2329
869 1 6.4 35.2 3.2 -11.7872
840 3 11.2 33.6 4.8 -11.2477
871 4 9.6 35.2 3.2 -13.2727
842 4 14.4 33.6 4.8 -13.2993
873 2 12.8 35.2 3.2 -9.85932
844 4 17.6 33.6 4.8 -13.2102
875 2 16 35.2 3.2 -9.79877
846 1 20.8 33.6 4.8 -11.6044
877 2 19.2 35.2 3.2 -9.76334
848 2 24 33.6 4.8 -9.76285
879 4 22.4 35.2 3.2 -13.1748
881 4 25.6 35.2 3.2 -13.3371
850 3 27.2 33.6 4.8 -11.254
883 2 28.8 35.2 3.2 -9.8254
852 4 30.4 33.6 4.8 -13.258
885 2 32 35.2 3.2 -9.82185
854 2 33.6 33.6 4.8 -9.83429
887 3 35.2 35.2 3.2 -11.2957
856 1 36.8 33.6 4.8 -11.7851
889 3 38.4 35.2 3.2 -11.2007
858 1 40 33.6 4.8 -11.6735
891 2 41.6 35.2 3.2 -9.80774
860 3 43.2 33.6 4.8 -11.2796
893 4 44.8 35.2 3.2 -13.3621
862 3 46.4 33.6 4.8 -11.2333
895 1 48 35.2 3.2 -11.7849
864 3 49.6 33.6 4.8 -11.2423
866 3 1.6 36.8 4.8 -11.2761
897 1 0 38.4 3.2 -11.8551
868 3 4.8 36.8 4.8 -11.2348
899 1 3.2 38.4 3.2 -11.8606
870 2 8 36.8 4.8 -9.79252
901 4 6.4 38.4 3.2 -13.2646
872 4 11.2 36.8 4.8 -13.4082
903 4 9.6 38.4 3.2 -13.2545
874 4 14.4 36.8 4.8 -13.3875
905 3 12.8 38.4 3.2 -11.2778
876 4 17.6 36.8 4.8 -13.3158
907 3 16 38.4 3.2 -11.2762
878 4 20.8 36.8 4.8 -13.2235
909 2 19.2 38.4 3.2 -9.82191
880 4 24 36.8 4.8 -13.2918
911 2 22.4 38.4 3.2 -9.69628
913 2 25.6 38.4 3.2 -9.7531
882 2 27.2 36.8 4.8 -9.89088
915 2 28.8 38.4 3.2 -9.84099
884 4 30.4 36.8 4.8 -13.2529
917 2 32 38.4 3.2 -9.73361
886 4 33.6 36.8 4.8 -13.2755
919 2 35.2 38.4 3.2 -9.75665
888 1 36.8 36.8 4.8 -11.7567
921 3 38.4 38.4 3.2 -11.203
890 1 40 36.8 4.8 -11.6846
923 2 41.6 38.4 3.2 -9.78652
892 2 43.2 36.8 4.8 -9.81905
925 4 44.8 38.4 3.2 -13.268
894 3 46.4 36.8 4.8 -11.2387
927 1 48 38.4 3.2 -11.8015
896 3 49.6 36.8 4.8 -11.2417
898 3 1.6 40 4.8 -11.228
929 4 0 41.6 3.2 -13.3366
900 2 4.8 40 4.8 -9.84153
931 2 3.2 41.6 3.2 -9.76846
902 4 8 40 4.8 -13.2831
933 2 6.4 41.6 3.2 -9.81739
904 1 11.2 40 4.8 -11.7617
935 2 9.6 41.6 3.2 -9.79094
906 4 14.4 40 4.8 -13.3649
937 2 12.8 41.6 3.2 -9.8202
908 4 17.6 40 4.8 -13.3715
939 4 16 41.6 3.2 -13.3812
910 1 20.8 40 4.8 -11.7545
941 3 19.2 41.6 3.2 -11.2472
912 1 24 40 4.8 -11.7463
943 2 22.4 41.6 3.2 -9.77233
945 2 25.6 41.6 3.2 -9.67712
914 1 27.2 40 4.8 -11.7972
947 3 28.8 41.6 3.2 -11.1633
916 4 30.4 40 4.8 -13.2731
949 2 32 41.6 3.2 -9.68873
918 4 33.6 40 4.8 -13.2042
951 2 35.2 41.6 3.2 -9.749
920 1 36.8 40 4.8 -11.7721
953 3 38.4 41.6 3.2 -11.2732
922 1 40 40 4.8 -11.7861
955 3 41.6 41.6 3.2 -11.2583
924 2 43.2 40 4.8 -9.86212
957 4 44.8 41.6 3.2 -13.3298
926 3 46.4 40 4.8 -11.2326
959 4 48 41.6 3.2 -13.298
928 3 49.6 40 4.8 -11.3091
930 1 1.6 43.2 4.8 -11.6558
961 2 0 44.8 3.2 -9.80579
932 1 4.8 43.2 4.8 -11.6922
963 2 3.2 44.8 3.2 -9.80992
934 4 8 43.2 4.8 -13.3466
965 3 6.4 44.8 3.2 -11.2226
936 4 11.2 43.2 4.8 -13.3389
967 3 9.6 44.8 3.2 -11.3605
938 4 14.4 43.2 4.8 -13.3182
969 2 12.8 44.8 3.2 -9.87159
940 4 17.6 43.2 4.8 -13.3613
971 2 16 44.8 3.2 -9.78948
942 4 20.8 43.2 4.8 -13.4018
973 2 19.2 44.8 3.2 -9.77554
944 1 24 43.2 4.8 -11.7961
975 3 22.4 44.8 3.2 -11.271
977 3 25.6 44.8 3.2 -11.2036
946 1 27.2 43.2 4.8 -11.8122
979 3 28.8 44.8 3.2 -11.2423
948 1 30.4 43.2 4.8 -11.7849
981 3 32 44.8 3.2 -11.1648
950 1 33.6 43.2 4.8 -11.7448
983 3 35.2 44.8 3.2 -11.1642
952 1 36.8 43.2 4.8 -11.8122
985 3 38.4 44.8 3.2 -11.2732
954 4 40 43.2 4.8 -13.4047
987 2 41.6 44.8 3.2 -9.83266
956 2 43.2 43.2 4.8 -9.86426
989 2 44.8 44.8 3.2 -9.78956
958 2 46.4 43.2 4.8 -9.87077
991 2 48 44.8 3.2 -9.85429
960 3 49.6 43.2 4.8 -11.2826
962 2 1.6 46.4 4.8 -9.79377
993 2 0 48 3.2 -9.78173
964 1 4.8 46.4 4.8 -11.7217
995 3 3.2 48 3.2 -11.2678
966 4 8 46.4 4.8 -13.3389
997 3 6.4 48 3.2 -11.3033
968 4 11.2 46.4 4.8 -13.3989
999 3 9.6 48 3.2 -11.3383
970 4 14.4 46.4 4.8 -13.3256
1001 3 12.8 48 3.2 -11.3061
972 1 17.6 46.4 4.8 -11.7558
1003 3 16 48 3.2 -11.1961
974 1 20.8 46.4 4.8 -11.796
1005 2 19.2 48 3.2 -9.67712
976 1 24 46.4 4.8 -11.8415
1007 3 22.4 48 3.2 -11.2039
1009 3 25.6 48 3.2 -11.2417
978 1 27.2 46.4 4.8 -11.8417
1011 3 28.8 48 3.2 -11.2414
980 1 30.4 46.4 4.8 -11.8122
1013 3 32 48 3.2 -11.2417
982 1 33.6 46.4 4.8 -11.7986
1015 3 35.2 48 3.2 -11.2417
984 1 36.8 46.4 4.8 -11.8257
1017 3 38.4 48 3.2 -11.2729
986 4 40 46.4 4.8 -13.3772
1019 2 41.6 48 3.2 -9.77583
988 4 43.2 46.4 4.8 -13.3501
1021 3 44.8 48 3.2 -11.1176
990 4 46.4 46.4 4.8 -13.3253
1023 2 48 48 3.2 -9.83362
992 3 49.6 46.4 4.8 -11.3427
994 1 1.6 49.6 4.8 -11.7457
996 1 4.8 49.6 4.8 -11.7981
998 1 8 49.6 4.8 -11.842
1000 1 11.2 49.6 4.8 -11.8554
1002 1 14.4 49.6 4.8 -11.8555
1004 1 17.6 49.6 4.8 -11.8121
1006 1 20.8 49.6 4.8 -11.8259
1008 1 24 49.6 4.8 -11.8439
1010 1 27.2 49.6 4.8 -11.8121
1012 1 30.4 49.6 4.8 -11.8558
1014 1 33.6 49.6 4.8 -11.8415
1016 1 36.8 49.6 4.8 -11.8557
1018 4 40 49.6 4.8 -13.3615
1020 1 43.2 49.6 4.8 -11.832
1022 1 46.4 49.6 4.8 -11.8167
1024 4 49.6 49.6 4.8 -13.3107
1025 3 0 0 6.4 -11.1976
1026 1 1.6 1.6 8 -11.8695
1027 3 3.2 0 6.4 -11.2411
1028 1 4.8 1.6 8 -11.8255
1029 3 6.4 0 6.4 -11.2373
1030 1 8 1.6 8 -11.7854
1031 3 9.6 0 6.4 -11.2016
1032 1 11.2 1.6 8 -11.7151
1033 3 12.8 0 6.4 -11.1635
1034 4 14.4 1.6 8 -13.2775
1035 3 16 0 6.4 -11.2737
1036 4 17.6 1.6 8 -13.3589
1037 3 19.2 0 6.4 -11.3099
1038 1 20.8 1.6 8 -11.7458
1039 3 22.4 0 6.4 -11.1936
1040 1 24 1.6 8 -11.7052
1041 2 25.6 0 6.4 -9.77541
1042 1 27.2 1.6 8 -11.7819
1043 3 28.8 0 6.4 -11.2378
1044 1 30.4 1.6 8 -11.8552
1045 3 32 0 6.4 -11.2753
1046 1 33.6 1.6 8 -11.8693
1047 3 35.2 0 6.4 -11.2417
1048 1 36.8 1.6 8 -11.8276
1049 3 38.4 0 6.4 -11.2758
1050 1 40 1.6 8 -11.7697
1051 3 41.6 0 6.4 -11.2744
1052 1 43.2 1.6 8 -11.8132
1053 3 44.8 0 6.4 -11.2397
1054 1 46.4 1.6 8 -11.8589
1055 3 48 0 6.4 -11.3104
1056 4 49.6 1.6 8 -13.3604
1057 3 0 3.2 6.4 -11.2759
1058 1 1.6 4.8 8 -11.8413
1059 3 3.2 3.2 6.4 -11.2394
1060 1 4.8 4.8 8 -11.8284
1061 2 6.4 3.2 6.4 -9.74842
1062 1 8 4.8 8 -11.7506
1063 2 9.6 3.2 6.4 -9.68369
1064 1 11.2 4.8 8 -11.7099
1065 2 12.8 3.2 6.4 -9.74605
1066 4 14.4 4.8 8 -13.2502
1067 3 16 3.2 6.4 -11.1911
1068 4 17.6 4.8 8 -13.2778
1069 3 19.2 3.2 6.4 -11.271
1070 1 20.8 4.8 8 -11.7709
1071 2 22.4 3.2 6.4 -9.71292
1072 1 24 4.8 8 -11.6642
1073 2 25.6 3.2 6.4 -9.71984
1074 4 27.2 4.8 8 -13.3341
1075 3 28.8 3.2 6.4 -11.2362
1076 1 30.4 4.8 8 -11.7693
1077 3 32 3.2 6.4 -11.2704
1078 4 33.6 4.8 8 -13.321
1079 3 35.2 3.2 6.4 -11.3061
1080 1 36.8 4.8 8 -11.8023
1081 3 38.4 3.2 6.4 -11.201
1082 1 40 4.8 8 -11.7464
1083 3 41.6 3.2 6.4 -11.1664
1084 1 43.2 4.8 8 -11.8183
1085 3 44.8 3.2 6.4 -11.2764
1086 4 46.4 4.8 8 -13.3315
1087 3 48 3.2 6.4 -11.2746
1088 1 49.6 4.8 8 -11.8292
1089 3 0 6.4 6.4 -11.2737
1090 1 1.6 8 8 -11.787
1091 3 3.2 6.4 6.4 -11.2764
1092 1 4.8 8 8 -11.8019
1093 3 6.4 6.4 6.4 -11.1613
1094 1 8 8 8 -11.7508
1095 2 9.6 6.4 6.4 -9.67946
1096 1 11.2 8 8 -11.7525
1097 3 12.8 6.4 6.4 -11.1199
1098 1 14.4 8 8 -11.7874
1099 4 16 6.4 6.4 -13.1557
1100 1 17.6 8 8 -11.726
1101 3 19.2 6.4 6.4 -11.1638
1102 1 20.8 8 8 -11.7234
1103 3 22.4 6.4 6.4 -11.166