ITEM: TIMESTEP
0
ITEM: NUMBER OF ATOMS
8192
ITEM: BOX BOUNDS pp pp pp
0.0000000000000000e+00 5.1200000000000003e+01
0.0000000000000000e+00 5.1200000000000003e+01
0.0000000000000000e+00 5.1200000000000003e+01
ITEM: ATOMS id type x y z c_eng
1 3 0 0 0 -11.1964
2 4 1.6 1.6 1.6 -13.3365
3 3 3.2 0 0 -11.277
4 1 4.8 1.6 1.6 -11.8281
5 3 6.4 0 0 -11.2036
6 1 8 1.6 1.6 -11.8558
7 3 9.6 0 0 -11.2417
8 1 11.2 1.6 1.6 -11.8415
9 3 12.8 0 0 -11.2414
10 1 14.4 1.6 1.6 -11.8557
11 3 16 0 0 -11.2417
12 1 17.6 1.6 1.6 -11.8555
13 3 19.2 0 0 -11.3056
14 1 20.8 1.6 1.6 -11.8437
15 2 22.4 0 0 -9.81037
16 1 24 1.6 1.6 -11.812
17 3 25.6 0 0 -11.2032
18 1 27.2 1.6 1.6 -11.8417
19 3 28.8 0 0 -11.1645
20 1 30.4 1.6 1.6 -11.8279
21 2 32 0 0 -9.74699
22 4 33.6 1.6 1.6 -13.3054
23 2 35.2 0 0 -9.75726
24 1 36.8 1.6 1.6 -11.8139
25 3 38.4 0 0 -11.2714
26 1 40 1.6 1.6 -11.8279
27 3 41.6 0 0 -11.202
28 1 43.2 1.6 1.6 -11.8258
29 3 44.8 0 0 -11.2767
30 4 46.4 1.6 1.6 -13.3845
31 3 48 0 0 -11.2347
32 4 49.6 1.6 1.6 -13.3572
33 2 0 3.2 0 -9.7998
34 1 1.6 4.8 1.6 -11.8021
35 3 3.2 3.2 0 -11.2015
36 1 4.8 4.8 1.6 -11.826
37 3 6.4 3.2 0 -11.2756
38 4 8 4.8 1.6 -13.3645
39 3 9.6 3.2 0 -11.2753
40 1 11.2 4.8 1.6 -11.8698
41 3 12.8 3.2 0 -11.2414
42 1 14.4 4.8 1.6 -11.828
43 3 16 3.2 0 -11.2756
44 4 17.6 4.8 1.6 -13.3389
45 3 19.2 3.2 0 -11.3395
46 1 20.8 4.8 1.6 -11.8834
47 3 22.4 3.2 0 -11.2714
48 1 24 4.8 1.6 -11.8555
49 3 25.6 3.2 0 -11.2423
50 1 27.2 4.8 1.6 -11.8121
51 3 28.8 3.2 0 -11.24
52 1 30.4 4.8 1.6 -11.8158
53 3 32 3.2 0 -11.2366
54 1 33.6 4.8 1.6 -11.845
55 3 35.2 3.2 0 -11.2741
56 4 36.8 4.8 1.6 -13.3333
57 3 38.4 3.2 0 -11.2761
58 1 40 4.8 1.6 -11.7653
59 3 41.6 3.2 0 -11.2036
60 1 43.2 4.8 1.6 -11.7394
61 3 44.8 3.2 0 -11.2761
62 1 46.4 4.8 1.6 -11.8104
63 3 48 3.2 0 -11.2712
64 1 49.6 4.8 1.6 -11.8419
65 3 0 6.4 0 -11.2378
66 1 1.6 8 1.6 -11.8282
67 3 3.2 6.4 0 -11.242
68 1 4.8 8 1.6 -11.8415
69 3 6.4 6.4 0 -11.2753
70 1 8 8 1.6 -11.8837
71 3 9.6 6.4 0 -11.3089
72 4 11.2 8 1.6 -13.3378
73 3 12.8 6.4 0 -11.24
74 1 14.4 8 1.6 -11.7991
75 3 16 6.4 0 -11.2371
76 1 17.6 8 1.6 -11.8035
77 3 19.2 6.4 0 -11.264
78 4 20.8 8 1.6 -13.3353
79 3 22.4 6.4 0 -11.3369
80 1 24 8 1.6 -11.8695
81 3 25.6 6.4 0 -11.2381
82 1 27.2 8 1.6 -11.8281
83 2 28.8 6.4 0 -9.7483
84 4 30.4 8 1.6 -13.3297
85 2 32 6.4 0 -9.80856
86 4 33.6 8 1.6 -13.3031
87 3 35.2 6.4 0 -11.2379
88 1 36.8 8 1.6 -11.7795
89 3 38.4 6.4 0 -11.24
90 1 40 8 1.6 -11.7588
91 3 41.6 6.4 0 -11.2048
92 1 43.2 8 1.6 -11.7385
93 3 44.8 6.4 0 -11.1639
94 1 46.4 8 1.6 -11.7779
95 3 48 6.4 0 -11.2767
96 4 49.6 8 1.6 -13.3075
97 3 0 9.6 0 -11.2405
98 1 1.6 11.2 1.6 -11.7973
99 3 3.2 9.6 0 -11.2042
100 1 4.8 11.2 1.6 -11.7992
101 3 6.4 9.6 0 -11.1645
102 1 8 11.2 1.6 -11.7381
103 3 9.6 9.6 0 -11.2389
104 1 11.2 11.2 1.6 -11.7885
105 2 12.8 9.6 0 -9.78539
106 4 14.4 11.2 1.6 -13.3065
107 2 16 9.6 0 -9.79006
108 2 17.6 11.2 1.6 -9.77912
109 4 19.2 9.6 0 -13.2908
110 1 20.8 11.2 1.6 -11.7662
111 3 22.4 9.6 0 -11.2682
112 1 24 11.2 1.6 -11.8551
113 3 25.6 9.6 0 -11.2761
114 1 27.2 11.2 1.6 -11.8413
115 3 28.8 9.6 0 -11.2405
116 1 30.4 11.2 1.6 -11.8434
117 3 32 9.6 0 -11.1986
118 1 33.6 11.2 1.6 -11.8011
119 3 35.2 9.6 0 -11.2399
120 4 36.8 11.2 1.6 -13.299
121 3 38.4 9.6 0 -11.2405
122 1 40 11.2 1.6 -11.7606
123 3 41.6 9.6 0 -11.2048
124 1 43.2 11.2 1.6 -11.7278
125 3 44.8 9.6 0 -11.2414
126 4 46.4 11.2 1.6 -13.2188
127 3 48 9.6 0 -11.2008
128 1 49.6 11.2 1.6 -11.7635
129 3 0 12.8 0 -11.2296
130 4 1.6 14.4 1.6 -13.3257
131 2 3.2 12.8 0 -9.84071
132 3 4.8 14.4 1.6 -11.2603
133 4 6.4 12.8 0 -13.2336
134 4 8 14.4 1.6 -13.2343
135 2 9.6 12.8 0 -9.72691
136 4 11.2 14.4 1.6 -13.2874
137 2 12.8 12.8 0 -9.84092
138 2 14.4 14.4 1.6 -9.72509
139 4 16 12.8 0 -13.32
140 3 17.6 14.4 1.6 -11.2962
141 4 19.2 12.8 0 -13.2913
142 2 20.8 14.4 1.6 -9.80361
143 3 22.4 12.8 0 -11.2699
144 1 24 14.4 1.6 -11.8032
145 3 25.6 12.8 0 -11.2382
146 1 27.2 14.4 1.6 -11.8273
147 3 28.8 12.8 0 -11.2734
148 1 30.4 14.4 1.6 -11.8704
149 3 32 12.8 0 -11.2405
150 1 33.6 14.4 1.6 -11.8583
151 3 35.2 12.8 0 -11.3086
152 4 36.8 14.4 1.6 -13.4062
153 3 38.4 12.8 0 -11.3066
154 4 40 14.4 1.6 -13.3363
155 3 41.6 12.8 0 -11.1605
156 1 43.2 14.4 1.6 -11.6456
157 2 44.8 12.8 0 -9.72308
158 1 46.4 14.4 1.6 -11.6947
159 2 48 12.8 0 -9.75395
160 1 49.6 14.4 1.6 -11.7182
161 2 0 16 0 -9.781
162 4 1.6 17.6 1.6 -13.2604
163 1 3.2 16 0 -11.7814
164 3 4.8 17.6 1.6 -11.1951
165 1 6.4 16 0 -11.7265
166 2 8 17.6 1.6 -9.70415
167 1 9.6 16 0 -11.7332
168 3 11.2 17.6 1.6 -11.0759
169 1 12.8 16 0 -11.7418
170 2 14.4 17.6 1.6 -9.72442
171 1 16 16 0 -11.7878
172 3 17.6 17.6 1.6 -11.2487
173 1 19.2 16 0 -11.7764
174 2 20.8 17.6 1.6 -9.83542
175 4 22.4 16 0 -13.2557
176 4 24 17.6 1.6 -13.3252
177 2 25.6 16 0 -9.79075
178 1 27.2 17.6 1.6 -11.7646
179 3 28.8 16 0 -11.2934
180 2 30.4 17.6 1.6 -9.79487
181 3 32 16 0 -11.2977
182 4 33.6 17.6 1.6 -13.3512
183 3 35.2 16 0 -11.2644
184 4 36.8 17.6 1.6 -13.3177
185 3 38.4 16 0 -11.3201
186 3 40 17.6 1.6 -11.1809
187 2 41.6 16 0 -9.79532
188 4 43.2 17.6 1.6 -13.2315
189 2 44.8 16 0 -9.767
190 2 46.4 17.6 1.6 -9.69708
191 2 48 16 0 -9.7354
192 2 49.6 17.6 1.6 -9.79266
193 1 0 19.2 0 -11.7768
194 3 1.6 20.8 1.6 -11.2006
195 1 3.2 19.2 0 -11.7972
196 3 4.8 20.8 1.6 -11.2007
197 1 6.4 19.2 0 -11.7701
198 2 8 20.8 1.6 -9.65849
199 4 9.6 19.2 0 -13.252
200 2 11.2 20.8 1.6 -9.76624
201 1 12.8 19.2 0 -11.7381
202 4 14.4 20.8 1.6 -13.2404
203 2 16 19.2 0 -9.79739
204 4 17.6 20.8 1.6 -13.3072
205 2 19.2 19.2 0 -9.84425
206 1 20.8 20.8 1.6 -11.7053
207 2 22.4 19.2 0 -9.81484
208 4 24 20.8 1.6 -13.4191
209 2 25.6 19.2 0 -9.83855
210 4 27.2 20.8 1.6 -13.328
211 1 28.8 19.2 0 -11.6417
212 4 30.4 20.8 1.6 -13.3142
213 2 32 19.2 0 -9.79196
214 2 33.6 20.8 1.6 -9.85904
215 2 35.2 19.2 0 -9.76752
216 2 36.8 20.8 1.6 -9.75898
217 1 38.4 19.2 0 -11.7511
218 3 40 20.8 1.6 -11.2422
219 1 41.6 19.2 0 -11.7632
220 3 43.2 20.8 1.6 -11.1642
221 1 44.8 19.2 0 -11.7296
222 3 46.4 20.8 1.6 -11.2057
223 1 48 19.2 0 -11.7453
224 3 49.6 20.8 1.6 -11.2032
225 1 0 22.4 0 -11.8415
226 3 1.6 24 1.6 -11.2039
227 1 3.2 22.4 0 -11.8123
228 2 4.8 24 1.6 -9.70694
229 1 6.4 22.4 0 -11.722
230 2 8 24 1.6 -9.6522
231 1 9.6 22.4 0 -11.7563
232 3 11.2 24 1.6 -11.2992
233 1 12.8 22.4 0 -11.7553
234 3 14.4 24 1.6 -11.2906
235 4 16 22.4 0 -13.3254
236 2 17.6 24 1.6 -9.81949
237 4 19.2 22.4 0 -13.3109
238 2 20.8 24 1.6 -9.86556
239 4 22.4 22.4 0 -13.3499
240 3 24 24 1.6 -11.2729
241 3 25.6 22.4 0 -11.3518
242 4 27.2 24 1.6 -13.4321
243 3 28.8 22.4 0 -11.3451
244 2 30.4 24 1.6 -9.85548
245 2 32 22.4 0 -9.87375
246 2 33.6 24 1.6 -9.86723
247 2 35.2 22.4 0 -9.83348
248 2 36.8 24 1.6 -9.76531
249 4 38.4 22.4 0 -13.3345
250 3 40 24 1.6 -11.1599
251 1 41.6 22.4 0 -11.8691
252 3 43.2 24 1.6 -11.2426
253 1 44.8 22.4 0 -11.8677
254 3 46.4 24 1.6 -11.2756
255 1 48 22.4 0 -11.8555
256 3 49.6 24 1.6 -11.2378
257 1 0 25.6 0 -11.8558
259 1 3.2 25.6 0 -11.8122
261 1 6.4 25.6 0 -11.7638
263 1 9.6 25.6 0 -11.7808
265 1 12.8 25.6 0 -11.8119
267 1 16 25.6 0 -11.7672
269 4 19.2 25.6 0 -13.3503
271 4 22.4 25.6 0 -13.2841
273 1 25.6 25.6 0 -11.7593
275 2 28.8 25.6 0 -9.82706
277 1 32 25.6 0 -11.8256
279 1 35.2 25.6 0 -11.7271
281 1 38.4 25.6 0 -11.714
283 1 41.6 25.6 0 -11.7971
285 1 44.8 25.6 0 -11.8554
287 4 48 25.6 0 -13.3656
258 3 1.6 27.2 1.6 -11.2756
289 1 0 28.8 0 -11.8415
260 3 4.8 27.2 1.6 -11.2716
291 1 3.2 28.8 0 -11.8698
262 3 8 27.2 1.6 -11.239
293 4 6.4 28.8 0 -13.3645
264 3 11.2 27.2 1.6 -11.1639
295 1 9.6 28.8 0 -11.7935
266 3 14.4 27.2 1.6 -11.2037
297 1 12.8 28.8 0 -11.7977
268 4 17.6 27.2 1.6 -13.2542
299 1 16 28.8 0 -11.8143
270 2 20.8 27.2 1.6 -9.83025
301 4 19.2 28.8 0 -13.3711
272 4 24 27.2 1.6 -13.3302
303 4 22.4 28.8 0 -13.3235
305 4 25.6 28.8 0 -13.2894
274 3 27.2 27.2 1.6 -11.2168
307 4 28.8 28.8 0 -13.3029
276 2 30.4 27.2 1.6 -9.75875
309 1 32 28.8 0 -11.7586
278 3 33.6 27.2 1.6 -11.2868
311 4 35.2 28.8 0 -13.3062
280 2 36.8 27.2 1.6 -9.80123
313 2 38.4 28.8 0 -9.78766
282 4 40 27.2 1.6 -13.2374
315 4 41.6 28.8 0 -13.2803
284 3 43.2 27.2 1.6 -11.1967
317 1 44.8 28.8 0 -11.8133
286 3 46.4 27.2 1.6 -11.3087
319 1 48 28.8 0 -11.8557
288 3 49.6 27.2 1.6 -11.2756
290 3 1.6 30.4 1.6 -11.2381
321 1 0 32 0 -11.7663
292 3 4.8 30.4 1.6 -11.3089
323 1 3.2 32 0 -11.812
294 3 8 30.4 1.6 -11.1985
325 1 6.4 32 0 -11.8698
296 4 11.2 30.4 1.6 -13.2329
327 1 9.6 32 0 -11.7975
298 3 14.4 30.4 1.6 -11.2919
329 4 12.8 32 0 -13.3425
300 3 17.6 30.4 1.6 -11.2478
331 1 16 32 0 -11.8284
302 4 20.8 30.4 1.6 -13.3372
333 1 19.2 32 0 -11.6733
304 2 24 30.4 1.6 -9.78901
335 1 22.4 32 0 -11.6936
337 4 25.6 32 0 -13.3241
306 2 27.2 30.4 1.6 -9.81693
339 4 28.8 32 0 -13.2644
308 4 30.4 30.4 1.6 -13.157
341 4 32 32 0 -13.3204
310 2 33.6 30.4 1.6 -9.83174
343 4 35.2 32 0 -13.2651
312 1 36.8 30.4 1.6 -11.7731
345 3 38.4 32 0 -11.1895
314 1 40 30.4 1.6 -11.7374
347 2 41.6 32 0 -9.81901
316 2 43.2 30.4 1.6 -9.79473
349 1 44.8 32 0 -11.7779
318 3 46.4 30.4 1.6 -11.2385
351 1 48 32 0 -11.813
320 3 49.6 30.4 1.6 -11.1642
322 2 1.6 33.6 1.6 -9.6845
353 4 0 35.2 0 -13.2907
324 3 4.8 33.6 1.6 -11.1654
355 1 3.2 35.2 0 -11.7563
326 3 8 33.6 1.6 -11.166
357 1 6.4 35.2 0 -11.7696
328 3 11.2 33.6 1.6 -11.1492
359 1 9.6 35.2 0 -11.7828
330 2 14.4 33.6 1.6 -9.86386
361 1 12.8 35.2 0 -11.7633
332 2 17.6 33.6 1.6 -9.81503
363 1 16 35.2 0 -11.7598
334 4 20.8 33.6 1.6 -13.1849
365 1 19.2 35.2 0 -11.707
336 2 24 33.6 1.6 -9.84585
367 2 22.4 35.2 0 -9.81815
369 2 25.6 35.2 0 -9.7826
338 2 27.2 33.6 1.6 -9.79532
371 4 28.8 35.2 0 -13.3423
340 3 30.4 33.6 1.6 -11.3305
373 2 32 35.2 0 -9.84571
342 4 33.6 33.6 1.6 -13.3613
375 2 35.2 35.2 0 -9.76171
344 1 36.8 33.6 1.6 -11.7974
377 3 38.4 35.2 0 -11.2347
346 1 40 33.6 1.6 -11.8185
379 2 41.6 35.2 0 -9.7564
348 2 43.2 33.6 1.6 -9.80297
381 4 44.8 35.2 0 -13.2941
350 3 46.4 33.6 1.6 -11.254
383 2 48 35.2 0 -9.79934
352 4 49.6 33.6 1.6 -13.1938
354 2 1.6 36.8 1.6 -9.75299
385 4 0 38.4 0 -13.3874
356 2 4.8 36.8 1.6 -9.69939
387 4 3.2 38.4 0 -13.3005
358 2 8 36.8 1.6 -9.78626
389 4 6.4 38.4 0 -13.3267
360 4 11.2 36.8 1.6 -13.3333
391 2 9.6 38.4 0 -9.84616
362 2 14.4 36.8 1.6 -9.8205
393 4 12.8 38.4 0 -13.2693
364 3 17.6 36.8 1.6 -11.3026
395 4 16 38.4 0 -13.3403
366 2 20.8 36.8 1.6 -9.81108
397 4 19.2 38.4 0 -13.2514
368 1 24 36.8 1.6 -11.6779
399 4 22.4 38.4 0 -13.3124
401 2 25.6 38.4 0 -9.79089
370 4 27.2 36.8 1.6 -13.1795
403 2 28.8 38.4 0 -9.84298
372 4 30.4 36.8 1.6 -13.2641
405 2 32 38.4 0 -9.75193
374 1 33.6 36.8 1.6 -11.7232
407 2 35.2 38.4 0 -9.68319
376 1 36.8 36.8 1.6 -11.7983
409 3 38.4 38.4 0 -11.2364
378 1 40 36.8 1.6 -11.7992
411 3 41.6 38.4 0 -11.2021
380 1 43.2 36.8 1.6 -11.7173
413 3 44.8 38.4 0 -11.1117
382 4 46.4 36.8 1.6 -13.2628
415 4 48 38.4 0 -13.3767
384 2 49.6 36.8 1.6 -9.7921
386 3 1.6 40 1.6 -11.1835
417 4 0 41.6 0 -13.3166
388 4 4.8 40 1.6 -13.2312
419 1 3.2 41.6 0 -11.7469
390 1 8 40 1.6 -11.7531
421 2 6.4 41.6 0 -9.78696
392 4 11.2 40 1.6 -13.3247
423 2 9.6 41.6 0 -9.82109
394 4 14.4 40 1.6 -13.3449
425 4 12.8 41.6 0 -13.3177
396 2 17.6 40 1.6 -9.8681
427 4 16 41.6 0 -13.2731
398 2 20.8 40 1.6 -9.79759
429 4 19.2 41.6 0 -13.288
400 4 24 40 1.6 -13.2974
431 3 22.4 41.6 0 -11.2114
433 4 25.6 41.6 0 -13.3199
402 4 27.2 40 1.6 -13.2953
435 3 28.8 41.6 0 -11.3065
404 1 30.4 40 1.6 -11.7246
437 3 32 41.6 0 -11.2898
406 1 33.6 40 1.6 -11.7512
439 3 35.2 41.6 0 -11.297
408 1 36.8 40 1.6 -11.8133
441 3 38.4 41.6 0 -11.2706
410 4 40 40 1.6 -13.281
443 3 41.6 41.6 0 -11.2411
412 1 43.2 40 1.6 -11.7616
445 3 44.8 41.6 0 -11.1587
414 4 46.4 40 1.6 -13.2714
447 2 48 41.6 0 -9.77871
416 2 49.6 40 1.6 -9.87033
418 2 1.6 43.2 1.6 -9.76551
449 1 0 44.8 0 -11.6277
420 2 4.8 43.2 1.6 -9.79847
451 4 3.2 44.8 0 -13.3196
422 4 8 43.2 1.6 -13.2617
453 2 6.4 44.8 0 -9.78374
424 4 11.2 43.2 1.6 -13.3213
455 2 9.6 44.8 0 -9.69831
426 2 14.4 43.2 1.6 -9.81977
457 3 12.8 44.8 0 -11.2831
428 2 17.6 43.2 1.6 -9.78584
459 2 16 44.8 0 -9.8856
430 1 20.8 43.2 1.6 -11.6845
461 4 19.2 44.8 0 -13.2107
432 1 24 43.2 1.6 -11.7575
463 2 22.4 44.8 0 -9.70141
465 2 25.6 44.8 0 -9.84498
434 2 27.2 43.2 1.6 -9.80429
467 3 28.8 44.8 0 -11.2442
436 1 30.4 43.2 1.6 -11.7982
469 2 32 44.8 0 -9.81214
438 4 33.6 43.2 1.6 -13.3334
471 3 35.2 44.8 0 -11.2559
440 4 36.8 43.2 1.6 -13.3245
473 2 38.4 44.8 0 -9.83905
442 1 40 43.2 1.6 -11.7632
475 3 41.6 44.8 0 -11.1197
444 1 43.2 43.2 1.6 -11.7273
477 2 44.8 44.8 0 -9.78218
446 1 46.4 43.2 1.6 -11.66
479 4 48 44.8 0 -13.1527
448 2 49.6 43.2 1.6 -9.66349
450 2 1.6 46.4 1.6 -9.74971
481 4 0 48 0 -13.1896
452 4 4.8 46.4 1.6 -13.385
483 3 3.2 48 0 -11.2229
454 1 8 46.4 1.6 -11.7394
485 2 6.4 48 0 -9.77901
456 1 11.2 46.4 1.6 -11.7542
487 3 9.6 48 0 -11.1654
458 1 14.4 46.4 1.6 -11.8016
489 3 12.8 48 0 -11.2767
460 1 17.6 46.4 1.6 -11.7613
491 3 16 48 0 -11.271
462 1 20.8 46.4 1.6 -11.7072
493 3 19.2 48 0 -11.3272
464 1 24 46.4 1.6 -11.7576
495 2 22.4 48 0 -9.84483
497 3 25.6 48 0 -11.1559
466 1 27.2 46.4 1.6 -11.8067
499 2 28.8 48 0 -9.74768
468 1 30.4 46.4 1.6 -11.7424
501 2 32 48 0 -9.66056
470 1 33.6 46.4 1.6 -11.7342
503 2 35.2 48 0 -9.78697
472 2 36.8 46.4 1.6 -9.78775
505 2 38.4 48 0 -9.76145
474 4 40 46.4 1.6 -13.2427
507 4 41.6 48 0 -13.199
476 4 43.2 46.4 1.6 -13.3057
509 3 44.8 48 0 -11.1888
478 2 46.4 46.4 1.6 -9.73612
511 2 48 48 0 -9.78589
480 4 49.6 46.4 1.6 -13.145
482 1 1.6 49.6 1.6 -11.7872
484 1 4.8 49.6 1.6 -11.8166
486 1 8 49.6 1.6 -11.8121
488 1 11.2 49.6 1.6 -11.8416
490 1 14.4 49.6 1.6 -11.8415
492 1 17.6 49.6 1.6 -11.8555
494 4 20.8 49.6 1.6 -13.3344
496 1 24 49.6 1.6 -11.8159
498 1 27.2 49.6 1.6 -11.8121
500 1 30.4 49.6 1.6 -11.7805
502 4 33.6 49.6 1.6 -13.2374
504 4 36.8 49.6 1.6 -13.3528
506 1 40 49.6 1.6 -11.7737
508 1 43.2 49.6 1.6 -11.7726
510 1 46.4 49.6 1.6 -11.7732
512 1 49.6 49.6 1.6 -11.6892
513 3 0 0 3.2 -11.2297
514 1 1.6 1.6 4.8 -11.7846
515 3 3.2 0 3.2 -11.2332
516 1 4.8 1.6 4.8 -11.7998
517 3 6.4 0 3.2 -11.2764
518 1 8 1.6 4.8 -11.8414
519 3 9.6 0 3.2 -11.2414
520 1 11.2 1.6 4.8 -11.8438
521 3 12.8 0 3.2 -11.2759
522 4 14.4 1.6 4.8 -13.3399
523 3 16 0 3.2 -11.2759
524 1 17.6 1.6 4.8 -11.8556
525 3 19.2 0 3.2 -11.2756
526 1 20.8 1.6 4.8 -11.8415
527 3 22.4 0 3.2 -11.2394
528 1 24 1.6 4.8 -11.8558
529 3 25.6 0 3.2 -11.242
530 1 27.2 1.6 4.8 -11.8122
531 3 28.8 0 3.2 -11.2397
532 1 30.4 1.6 4.8 -11.8415
533 3 32 0 3.2 -11.298
534 4 33.6 1.6 4.8 -13.3761
535 4 35.2 0 3.2 -13.3456
536 4 36.8 1.6 4.8 -13.357
537 3 38.4 0 3.2 -11.2626
538 4 40 1.6 4.8 -13.281
539 3 41.6 0 3.2 -11.2408
540 1 43.2 1.6 4.8 -11.8575
541 3 44.8 0 3.2 -11.2342
542 4 46.4 1.6 4.8 -13.3804
543 2 48 0 3.2 -9.80259
544 1 49.6 1.6 4.8 -11.8146
545 3 0 3.2 3.2 -11.2356
546 1 1.6 4.8 4.8 -11.8258
547 2 3.2 3.2 3.2 -9.76901
548 1 4.8 4.8 4.8 -11.8121
549 3 6.4 3.2 3.2 -11.2376
550 1 8 4.8 4.8 -11.8697
551 3 9.6 3.2 3.2 -11.2756
552 1 11.2 4.8 4.8 -11.8277
553 3 12.8 3.2 3.2 -11.2394
554 1 14.4 4.8 4.8 -11.8138
555 3 16 3.2 3.2 -11.2724
556 1 17.6 4.8 4.8 -11.8422
557 3 19.2 3.2 3.2 -11.2756
558 1 20.8 4.8 4.8 -11.8278
559 3 22.4 3.2 3.2 -11.2759
560 4 24 4.8 4.8 -13.3394
561 3 25.6 3.2 3.2 -11.2753
562 1 27.2 4.8 4.8 -11.8258
563 3 28.8 3.2 3.2 -11.2423
564 1 30.4 4.8 4.8 -11.8133
565 3 32 3.2 3.2 -11.3393
566 4 33.6 4.8 4.8 -13.3487
567 3 35.2 3.2 3.2 -11.328
568 4 36.8 4.8 4.8 -13.2793
569 3 38.4 3.2 3.2 -11.264
570 1 40 4.8 4.8 -11.764
571 2 41.6 3.2 3.2 -9.7754
572 4 43.2 4.8 4.8 -13.3177
573 3 44.8 3.2 3.2 -11.2613
574 4 46.4 4.8 4.8 -13.3566
575 3 48 3.2 3.2 -11.3359
576 1 49.6 4.8 4.8 -11.8589
577 3 0 6.4 3.2 -11.2737
578 1 1.6 8 4.8 -11.8278
579 3 3.2 6.4 3.2 -11.2036
580 1 4.8 8 4.8 -11.8558
581 3 6.4 6.4 3.2 -11.3089
582 4 8 8 4.8 -13.3639
583 3 9.6 6.4 3.2 -11.3412
584 1 11.2 8 4.8 -11.8839
585 3 12.8 6.4 3.2 -11.2733
586 4 14.4 8 4.8 -13.3355
587 2 16 6.4 3.2 -9.80359
588 1 17.6 8 4.8 -11.7691
589 3 19.2 6.4 3.2 -11.2738
590 1 20.8 8 4.8 -11.8009
591 3 22.4 6.4 3.2 -11.2724
592 1 24 8 4.8 -11.8188
593 3 25.6 6.4 3.2 -11.2764
594 1 27.2 8 4.8 -11.8037
595 3 28.8 6.4 3.2 -11.2358
596 4 30.4 8 4.8 -13.3275
597 3 32 6.4 3.2 -11.2924
598 2 33.6 8 4.8 -9.77428
599 2 35.2 6.4 3.2 -9.84563
600 2 36.8 8 4.8 -9.78868
601 2 38.4 6.4 3.2 -9.79107
602 2 40 8 4.8 -9.82318
603 2 41.6 6.4 3.2 -9.72592
604 4 43.2 8 4.8 -13.3559
605 4 44.8 6.4 3.2 -13.2308
606 4 46.4 8 4.8 -13.3229
607 3 48 6.4 3.2 -11.1902
608 4 49.6 8 4.8 -13.3635
609 2 0 9.6 3.2 -9.81177
610 1 1.6 11.2 4.8 -11.8471
611 3 3.2 9.6 3.2 -11.2036
612 1 4.8 11.2 4.8 -11.8548
613 3 6.4 9.6 3.2 -11.2761
614 1 8 11.2 4.8 -11.8268
615 3 9.6 9.6 3.2 -11.2721
616 1 11.2 11.2 4.8 -11.7864
617 3 12.8 9.6 3.2 -11.3092
618 1 14.4 11.2 4.8 -11.7939
619 3 16 9.6 3.2 -11.1921
620 1 17.6 11.2 4.8 -11.7189
621 3 19.2 9.6 3.2 -11.1612
622 1 20.8 11.2 4.8 -11.7051
623 3 22.4 9.6 3.2 -11.2744
624 4 24 11.2 4.8 -13.3331
625 3 25.6 9.6 3.2 -11.2397
626 1 27.2 11.2 4.8 -11.828
627 3 28.8 9.6 3.2 -11.2712
628 4 30.4 11.2 4.8 -13.308
629 2 32 9.6 3.2 -9.8183
630 4 33.6 11.2 4.8 -13.2259
631 4 35.2 9.6 3.2 -13.2254
632 4 36.8 11.2 4.8 -13.3036
633 2 38.4 9.6 3.2 -9.81466
634 2 40 11.2 4.8 -9.89001
635 2 41.6 9.6 3.2 -9.81018
636 3 43.2 11.2 4.8 -11.3094
637 3 44.8 9.6 3.2 -11.171
638 2 46.4 11.2 4.8 -9.91082
639 4 48 9.6 3.2 -13.3477
640 2 49.6 11.2 4.8 -9.80295
641 3 0 12.8 3.2 -11.2268
642 4 1.6 14.4 4.8 -13.3488
643 3 3.2 12.8 3.2 -11.3619
644 4 4.8 14.4 4.8 -13.4439
645 3 6.4 12.8 3.2 -11.2594
646 4 8 14.4 4.8 -13.3198
647 2 9.6 12.8 3.2 -9.78432
648 4 11.2 14.4 4.8 -13.2477
649 3 12.8 12.8 3.2 -11.1458
650 4 14.4 14.4 4.8 -13.2853
651 4 16 12.8 3.2 -13.3145
652 2 17.6 14.4 4.8 -9.79348
653 4 19.2 12.8 3.2 -13.2918
654 4 20.8 14.4 4.8 -13.2269
655 3 22.4 12.8 3.2 -11.2262
656 4 24 14.4 4.8 -13.3836
657 3 25.6 12.8 3.2 -11.3081
658 1 27.2 14.4 4.8 -11.8426
659 3 28.8 12.8 3.2 -11.3089
660 4 30.4 14.4 4.8 -13.3098
661 3 32 12.8 3.2 -11.2635
662 3 33.6 14.4 4.8 -11.3509
663 3 35.2 12.8 3.2 -11.3357
664 3 36.8 14.4 4.8 -11.3959
665 2 38.4 12.8 3.2 -9.87728
666 3 40 14.4 4.8 -11.3302
667 4 41.6 12.8 3.2 -13.2716
668 3 43.2 14.4 4.8 -11.3339
669 4 44.8 12.8 3.2 -13.2996
670 3 46.4 14.4 4.8 -11.2046
671 2 48 12.8 3.2 -9.78201
672 4 49.6 14.4 4.8 -13.4026
673 4 0 16 3.2 -13.3214
674 2 1.6 17.6 4.8 -9.78867
675 2 3.2 16 3.2 -9.83223
676 4 4.8 17.6 4.8 -13.3282
677 4 6.4 16 3.2 -13.3323
678 4 8 17.6 4.8 -13.1998
679 2 9.6 16 3.2 -9.70263
680 4 11.2 17.6 4.8 -13.2858
681 1 12.8 16 3.2 -11.6665
682 2 14.4 17.6 4.8 -9.71834
683 1 16 16 3.2 -11.6811
684 4 17.6 17.6 4.8 -13.2671
685 2 19.2 16 3.2 -9.76182
686 1 20.8 17.6 4.8 -11.72
687 2 22.4 16 3.2 -9.84768
688 1 24 17.6 4.8 -11.8127
689 3 25.6 16 3.2 -11.2389
690 1 27.2 17.6 4.8 -11.7729
691 3 28.8 16 3.2 -11.2303
692 4 30.4 17.6 4.8 -13.2544
693 2 32 16 3.2 -9.9174
694 2 33.6 17.6 4.8 -9.81399
695 2 35.2 16 3.2 -9.89329
696 2 36.8 17.6 4.8 -9.75474
697 4 38.4 16 3.2 -13.3921
698 3 40 17.6 4.8 -11.2344
699 4 41.6 16 3.2 -13.332
700 3 43.2 17.6 4.8 -11.233
701 2 44.8 16 3.2 -9.77561
702 4 46.4 17.6 4.8 -13.2431
703 2 48 16 3.2 -9.78796
704 3 49.6 17.6 4.8 -11.1856
705 4 0 19.2 3.2 -13.2469
706 2 1.6 20.8 4.8 -9.74732
707 4 3.2 19.2 3.2 -13.2883
708 3 4.8 20.8 4.8 -11.2261
709 1 6.4 19.2 3.2 -11.6639
710 4 8 20.8 4.8 -13.2253
711 1 9.6 19.2 3.2 -11.6357
712 4 11.2 20.8 4.8 -13.3396
713 1 12.8 19.2 3.2 -11.665
714 2 14.4 20.8 4.8 -9.8786
715 4 16 19.2 3.2 -13.2581
716 2 17.6 20.8 4.8 -9.8188
717 4 19.2 19.2 3.2 -13.3274
718 4 20.8 20.8 4.8 -13.3056
719 3 22.4 19.2 3.2 -11.2658
720 1 24 20.8 4.8 -11.8702
721 3 25.6 19.2 3.2 -11.3018
722 4 27.2 20.8 4.8 -13.3469
723 2 28.8 19.2 3.2 -9.79588
724 4 30.4 20.8 4.8 -13.2554
725 2 32 19.2 3.2 -9.83357
726 3 33.6 20.8 4.8 -11.2266
727 4 35.2 19.2 3.2 -13.2886
728 2 36.8 20.8 4.8 -9.76241
729 1 38.4 19.2 3.2 -11.7235
730 3 40 20.8 4.8 -11.2029
731 1 41.6 19.2 3.2 -11.7972
732 3 43.2 20.8 4.8 -11.2416
733 1 44.8 19.2 3.2 -11.7465
734 3 46.4 20.8 4.8 -11.0791
735 1 48 19.2 3.2 -11.748
736 2 49.6 20.8 4.8 -9.68186
737 1 0 22.4 3.2 -11.7682
738 3 1.6 24 4.8 -11.1618
739 1 3.2 22.4 3.2 -11.7982
740 3 4.8 24 4.8 -11.2003
741 1 6.4 22.4 3.2 -11.7107
742 2 8 24 4.8 -9.78644
743 4 9.6 22.4 3.2 -13.2789
744 3 11.2 24 4.8 -11.3469
745 3 12.8 22.4 3.2 -11.3051
746 3 14.4 24 4.8 -11.3704
747 2 16 22.4 3.2 -9.86572
748 4 17.6 24 4.8 -13.2745
749 2 19.2 22.4 3.2 -9.84733
750 1 20.8 24 4.8 -11.755
751 3 22.4 22.4 3.2 -11.2824
752 4 24 24 4.8 -13.3784
753 3 25.6 22.4 3.2 -11.4375
754 4 27.2 24 4.8 -13.3759
755 2 28.8 22.4 3.2 -9.86919
756 3 30.4 24 4.8 -11.1838
757 4 32 22.4 3.2 -13.3591
758 3 33.6 24 4.8 -11.304
759 4 35.2 22.4 3.2 -13.3163
760 2 36.8 24 4.8 -9.82173
761 1 38.4 22.4 3.2 -11.7795
762 2 40 24 4.8 -9.79223
763 1 41.6 22.4 3.2 -11.8117
764 3 43.2 24 4.8 -11.2026
765 1 44.8 22.4 3.2 -11.8416
766 3 46.4 24 4.8 -11.2051
767 1 48 22.4 3.2 -11.7808
768 2 49.6 24 4.8 -9.71269
769 1 0 25.6 3.2 -11.8281
771 1 3.2 25.6 3.2 -11.826
773 1 6.4 25.6 3.2 -11.7503
775 1 9.6 25.6 3.2 -11.7981
777 1 12.8 25.6 3.2 -11.8778
779 1 16 25.6 3.2 -11.7139
781 2 19.2 25.6 3.2 -9.7326
783 4 22.4 25.6 3.2 -13.3558
785 2 25.6 25.6 3.2 -9.83791
787 1 28.8 25.6 3.2 -11.7255
789 1 32 25.6 3.2 -11.7669
791 4 35.2 25.6 3.2 -13.3435
793 4 38.4 25.6 3.2 -13.2433
795 1 41.6 25.6 3.2 -11.7326
797 1 44.8 25.6 3.2 -11.8278
799 1 48 25.6 3.2 -11.8258
770 3 1.6 27.2 4.8 -11.3084
801 1 0 28.8 3.2 -11.8556
772 3 4.8 27.2 4.8 -11.2761
803 4 3.2 28.8 3.2 -13.365
774 3 8 27.2 4.8 -11.2042
805 1 6.4 28.8 3.2 -11.8697
776 3 11.2 27.2 4.8 -11.2432
807 1 9.6 28.8 3.2 -11.7799
778 3 14.4 27.2 4.8 -11.2975
809 1 12.8 28.8 3.2 -11.8043
780 1 17.6 27.2 4.8 -11.6864
811 4 16 28.8 3.2 -13.3513
782 1 20.8 27.2 4.8 -11.7808
813 3 19.2 28.8 3.2 -11.2882
784 4 24 27.2 4.8 -13.3207
815 3 22.4 28.8 3.2 -11.279
817 4 25.6 28.8 3.2 -13.3371
786 2 27.2 27.2 4.8 -9.78461
819 1 28.8 28.8 3.2 -11.6805
788 2 30.4 27.2 4.8 -9.75267
821 4 32 28.8 3.2 -13.2855
790 3 33.6 27.2 4.8 -11.3111
823 3 35.2 28.8 3.2 -11.3604
792 4 36.8 27.2 4.8 -13.3507
825 3 38.4 28.8 3.2 -11.2218
794 4 40 27.2 4.8 -13.2275
827 4 41.6 28.8 3.2 -13.2335
796 2 43.2 27.2 4.8 -9.79291
829 4 44.8 28.8 3.2 -13.3044
798 3 46.4 27.2 4.8 -11.2709
831 1 48 28.8 3.2 -11.8437
800 3 49.6 27.2 4.8 -11.2733
802 3 1.6 30.4 4.8 -11.2756
833 1 0 32 3.2 -11.7466
804 3 4.8 30.4 4.8 -11.3084
835 1 3.2 32 3.2 -11.8259
806 3 8 30.4 4.8 -11.274
837 1 6.4 32 3.2 -11.8279
808 3 11.2 30.4 4.8 -11.1943
839 1 9.6 32 3.2 -11.7478
810 2 14.4 30.4 4.8 -9.85977
841 2 12.8 32 3.2 -9.81971
812 1 17.6 30.4 4.8 -11.8355
843 2 16 32 3.2 -9.8501
814 4 20.8 30.4 4.8 -13.3504
845 2 19.2 32 3.2 -9.84613
816 4 24 30.4 4.8 -13.3862
847 2 22.4 32 3.2 -9.84735
849 4 25.6 32 3.2 -13.2955
818 3 27.2 30.4 4.8 -11.1913
851 1 28.8 32 3.2 -11.7691
820 2 30.4 30.4 4.8 -9.75614
853 2 32 32 3.2 -9.87921
822 4 33.6 30.4 4.8 -13.4126
855 3 35.2 32 3.2 -11.2989
824 1 36.8 30.4 4.8 -11.8581
857 3 38.4 32 3.2 -11.3058
826 4 40 30.4 4.8 -13.2388
859 2 41.6 32 3.2 -9.7925
828 4 43.2 30.4 4.8 -13.2083
861 4 44.8 32 3.2 -13.2591
830 2 46.4 30.4 4.8 -9.78373
863 1 48 32 3.2 -11.7569
832 3 49.6 30.4 4.8 -11.24
834 3 1.6 33.6 4.8 -11.2018
865 1 0 35.2 3.2 -11.6946
836 3 4.8 33.6 4.8 -11.1966
867 1 3.2 35.2 3.2 -11.6946
838 2 8 33.6 4.8 -9.72535
869 1 6.4 35.2 3.2 -11.7183
840 4 11.2 33.6 4.8 -13.2233
871 1 9.6 35.2 3.2 -11.6816
842 1 14.4 33.6 4.8 -11.7395
873 2 12.8 35.2 3.2 -9.7907
844 1 17.6 33.6 4.8 -11.7747
875 2 16 35.2 3.2 -9.82993
846 4 20.8 33.6 4.8 -13.3492
877 2 19.2 35.2 3.2 -9.84244
848 2 24 33.6 4.8 -9.8328
879 3 22.4 35.2 3.2 -11.2789
881 1 25.6 35.2 3.2 -11.6615
850 3 27.2 33.6 4.8 -11.3214
883 4 28.8 35.2 3.2 -13.3184
852 3 30.4 33.6 4.8 -11.2954
885 3 32 35.2 3.2 -11.2789
854 1 33.6 33.6 4.8 -11.816
887 3 35.2 35.2 3.2 -11.2387
856 4 36.8 33.6 4.8 -13.3553
889 3 38.4 35.2 3.2 -11.3086
858 4 40 33.6 4.8 -13.3473
891 3 41.6 35.2 3.2 -11.2612
860 4 43.2 33.6 4.8 -13.2607
893 2 44.8 35.2 3.2 -9.8333
862 2 46.4 33.6 4.8 -9.7528
895 4 48 35.2 3.2 -13.3106
864 3 49.6 33.6 4.8 -11.164
866 2 1.6 36.8 4.8 -9.69474
897 1 0 38.4 3.2 -11.7602
868 4 4.8 36.8 4.8 -13.2196
899 4 3.2 38.4 3.2 -13.1688
870 2 8 36.8 4.8 -9.78726
901 2 6.4 38.4 3.2 -9.79216
872 4 11.2 36.8 4.8 -13.2918
903 3 9.6 38.4 3.2 -11.2939
874 1 14.4 36.8 4.8 -11.7568
905 3 12.8 38.4 3.2 -11.3268
876 4 17.6 36.8 4.8 -13.3156
907 3 16 38.4 3.2 -11.2965
878 1 20.8 36.8 4.8 -11.7676
909 4 19.2 38.4 3.2 -13.2982
880 4 24 36.8 4.8 -13.2014
911 2 22.4 38.4 3.2 -9.76704
913 2 25.6 38.4 3.2 -9.70118
882 4 27.2 36.8 4.8 -13.237
915 2 28.8 38.4 3.2 -9.69881
884 1 30.4 36.8 4.8 -11.7439
917 2 32 38.4 3.2 -9.69159
886 1 33.6 36.8 4.8 -11.7277
919 3 35.2 38.4 3.2 -11.1641
888 1 36.8 36.8 4.8 -11.802
921 3 38.4 38.4 3.2 -11.1623
890 1 40 36.8 4.8 -11.7556
923 2 41.6 38.4 3.2 -9.76429
892 2 43.2 36.8 4.8 -9.80727
925 4 44.8 38.4 3.2 -13.2707
894 2 46.4 36.8 4.8 -9.78987
927 4 48 38.4 3.2 -13.263
896 3 49.6 36.8 4.8 -11.2003
898 2 1.6 40 4.8 -9.79254
929 4 0 41.6 3.2 -13.2641
900 4 4.8 40 4.8 -13.2264
931 1 3.2 41.6 3.2 -11.6877
902 1 8 40 4.8 -11.8418
933 2 6.4 41.6 3.2 -9.81561
904 1 11.2 40 4.8 -11.792
935 3 9.6 41.6 3.2 -11.2308
906 4 14.4 40 4.8 -13.2671
937 3 12.8 41.6 3.2 -11.1822
908 4 17.6 40 4.8 -13.2563
939 4 16 41.6 3.2 -13.3178
910 1 20.8 40 4.8 -11.7037
941 2 19.2 41.6 3.2 -9.76286
912 1 24 40 4.8 -11.7611
943 3 22.4 41.6 3.2 -11.1914
945 3 25.6 41.6 3.2 -11.2335
914 1 27.2 40 4.8 -11.7276
947 2 28.8 41.6 3.2 -9.71507
916 1 30.4 40 4.8 -11.665
949 2 32 41.6 3.2 -9.74716
918 4 33.6 40 4.8 -13.2685
951 3 35.2 41.6 3.2 -11.1905
920 1 36.8 40 4.8 -11.744
953 2 38.4 41.6 3.2 -9.75354
922 1 40 40 4.8 -11.71
955 2 41.6 41.6 3.2 -9.76289
924 2 43.2 40 4.8 -9.79166
957 2 44.8 41.6 3.2 -9.77958
926 3 46.4 40 4.8 -11.2649
959 4 48 41.6 3.2 -13.2977
928 3 49.6 40 4.8 -11.2287
930 2 1.6 43.2 4.8 -9.82145
961 1 0 44.8 3.2 -11.6894
932 4 4.8 43.2 4.8 -13.3445
963 2 3.2 44.8 3.2 -9.80774
934 4 8 43.2 4.8 -13.3761
965 3 6.4 44.8 3.2 -11.3142
936 1 11.2 43.2 4.8 -11.7249
967 4 9.6 44.8 3.2 -13.2332
938 1 14.4 43.2 4.8 -11.663
969 2 12.8 44.8 3.2 -9.759
940 4 17.6 43.2 4.8 -13.1882
971 2 16 44.8 3.2 -9.7275
942 1 20.8 43.2 4.8 -11.6881
973 2 19.2 44.8 3.2 -9.63151
944 1 24 43.2 4.8 -11.8125
975 2 22.4 44.8 3.2 -9.67758
977 3 25.6 44.8 3.2 -11.1996
946 1 27.2 43.2 4.8 -11.799
979 2 28.8 44.8 3.2 -9.77588
948 1 30.4 43.2 4.8 -11.7207
981 3 32 44.8 3.2 -11.1192
950 4 33.6 43.2 4.8 -13.3486
983 4 35.2 44.8 3.2 -13.2812
952 1 36.8 43.2 4.8 -11.7619
985 2 38.4 44.8 3.2 -9.76415
954 4 40 43.2 4.8 -13.2031
987 2 41.6 44.8 3.2 -9.76069
956 4 43.2 43.2 4.8 -13.2304
989 2 44.8 44.8 3.2 -9.74108
958 3 46.4 43.2 4.8 -11.1106
991 1 48 44.8 3.2 -11.6275
960 2 49.6 43.2 4.8 -9.78973
962 2 1.6 46.4 4.8 -9.85818
993 2 0 48 3.2 -9.78407
964 4 4.8 46.4 4.8 -13.3369
995 2 3.2 48 3.2 -9.86877
966 4 8 46.4 4.8 -13.3791
997 3 6.4 48 3.2 -11.3008
968 4 11.2 46.4 4.8 -13.2458
999 3 9.6 48 3.2 -11.2377
970 1 14.4 46.4 4.8 -11.6409
1001 3 12.8 48 3.2 -11.2032
972 1 17.6 46.4 4.8 -11.6904
1003 3 16 48 3.2 -11.1238
974 1 20.8 46.4 4.8 -11.7173
1005 3 19.2 48 3.2 -11.2401
976 1 24 46.4 4.8 -11.8122
1007 3 22.4 48 3.2 -11.2007
1009 3 25.6 48 3.2 -11.2429
978 1 27.2 46.4 4.8 -11.8119
1011 3 28.8 48 3.2 -11.1988
980 1 30.4 46.4 4.8 -11.8393
1013 3 32 48 3.2 -11.2692
982 1 33.6 46.4 4.8 -11.785
1015 2 35.2 48 3.2 -9.81574
984 4 36.8 46.4 4.8 -13.2997
1017 2 38.4 48 3.2 -9.86635
986 1 40 46.4 4.8 -11.7328
1019 3 41.6 48 3.2 -11.156
988 4 43.2 46.4 4.8 -13.2661
1021 2 44.8 48 3.2 -9.83735
990 4 46.4 46.4 4.8 -13.2479
1023 2 48 48 3.2 -9.66946
992 2 49.6 46.4 4.8 -9.7472
994 4 1.6 49.6 4.8 -13.3058
996 4 4.8 49.6 4.8 -13.3048
998 1 8 49.6 4.8 -11.8695
1000 1 11.2 49.6 4.8 -11.8437
1002 1 14.4 49.6 4.8 -11.7594
1004 1 17.6 49.6 4.8 -11.7799
1006 1 20.8 49.6 4.8 -11.8558
1008 1 24 49.6 4.8 -11.8416
1010 1 27.2 49.6 4.8 -11.8284
1012 4 30.4 49.6 4.8 -13.3575
1014 4 33.6 49.6 4.8 -13.3828
1016 3 36.8 49.6 4.8 -11.1982
1018 1 40 49.6 4.8 -11.792
1020 1 43.2 49.6 4.8 -11.8277
1022 1 46.4 49.6 4.8 -11.7248
1024 1 49.6 49.6 4.8 -11.7374
1025 2 0 0 6.4 -9.80555
1026 1 1.6 1.6 8 -11.7972
1027 2 3.2 0 6.4 -9.72288
1028 1 4.8 1.6 8 -11.7501
1029 3 6.4 0 6.4 -11.2013
1030 1 8 1.6 8 -11.7677
1031 3 9.6 0 6.4 -11.2742
1032 4 11.2 1.6 8 -13.2691
1033 3 12.8 0 6.4 -11.1955
1034 1 14.4 1.6 8 -11.6992
1035 3 16 0 6.4 -11.2004
1036 1 17.6 1.6 8 -11.8022
1037 3 19.2 0 6.4 -11.2423
1038 1 20.8 1.6 8 -11.8276
1039 3 22.4 0 6.4 -11.2414
1040 1 24 1.6 8 -11.8554
1041 3 25.6 0 6.4 -11.2036
1042 1 27.2 1.6 8 -11.7964
1043 2 28.8 0 6.4 -9.74088
1044 1 30.4 1.6 8 -11.7171
1045 3 32 0 6.4 -11.1877
1046 1 33.6 1.6 8 -11.7857
1047 2 35.2 0 6.4 -9.78753
1048 1 36.8 1.6 8 -11.7474
1049 4 38.4 0 6.4 -13.2069
1050 1 40 1.6 8 -11.7243
1051 3 41.6 0 6.4 -11.1624
1052 1 43.2 1.6 8 -11.7553
1053 3 44.8 0 6.4 -11.2401
1054 1 46.4 1.6 8 -11.771
1055 3 48 0 6.4 -11.1164
1056 1 49.6 1.6 8 -11.8157
1057 3 0 3.2 6.4 -11.2705
1058 4 1.6 4.8 8 -13.3833
1059 3 3.2 3.2 6.4 -11.1988
1060 1 4.8 4.8 8 -11.8558
1061 3 6.4 3.2 6.4 -11.2426
1062 1 8 4.8 8 -11.8279
1063 3 9.6 3.2 6.4 -11.2374
1064 4 11.2 4.8 8 -13.3042
1065 2 12.8 3.2 6.4 -9.78269
1066 1 14.4 4.8 8 -11.7148
1067 3 16 3.2 6.4 -11.1975
1068 4 17.6 4.8 8 -13.2446
1069 3 19.2 3.2 6.4 -11.2403
1070 1 20.8 4.8 8 -11.7786
1071 3 22.4 3.2 6.4 -11.24
1072 1 24 4.8 8 -11.757
1073 3 25.6 3.2 6.4 -11.2767
1074 1 27.2 4.8 8 -11.7759
1075 3 28.8 3.2 6.4 -11.1658
1076 1 30.4 4.8 8 -11.7609
1077 3 32 3.2 6.4 -11.2732
1078 1 33.6 4.8 8 -11.7634
1079 3 35.2 3.2 6.4 -11.2271
1080 1 36.8 4.8 8 -11.7075
1081 2 38.4 3.2 6.4 -9.76428
1082 4 40 4.8 8 -13.2034
1083 3 41.6 3.2 6.4 -11.2668
1084 4 43.2 4.8 8 -13.3723
1085 3 44.8 3.2 6.4 -11.3342
1086 1 46.4 4.8 8 -11.7768
1087 3 48 3.2 6.4 -11.2692
1088 4 49.6 4.8 8 -13.3453
1089 3 0 6.4 6.4 -11.3052
1090 1 1.6 8 8 -11.87
1091 3 3.2 6.4 6.4 -11.2756
1092 1 4.8 8 8 -11.8412
1093 3 6.4 6.4 6.4 -11.2753
1094 1 8 8 8 -11.8695
1095 3 9.6 6.4 6.4 -11.3087
1096 1 11.2 8 8 -11.7971
1097 3 12.8 6.4 6.4 -11.2697
1098 4 14.4 8 8 -13.2967
1099 3 16 6.4 6.4 -11.2339
1100 1 17.6 8 8 -11.7421
1101 3 19.2 6.4 6.4 -11.2383
1102 2 20.8 8 8 -9.78172
1103 2 22.4 6.4 6.4 -9.81819