ITEM: TIMESTEP
0
ITEM: NUMBER OF ATOMS
8192
ITEM: BOX BOUNDS pp pp pp
0.0000000000000000e+00 5.1200000000000003e+01
0.0000000000000000e+00 5.1200000000000003e+01
0.0000000000000000e+00 5.1200000000000003e+01
ITEM: ATOMS id type x y z c_eng
1 3 0 0 0 -11.2738
2 4 1.6 1.6 1.6 -13.3096
3 3 3.2 0 0 -11.1987
4 1 4.8 1.6 1.6 -11.8022
5 2 6.4 0 0 -9.78111
6 1 8 1.6 1.6 -11.8437
7 3 9.6 0 0 -11.2704
8 1 11.2 1.6 1.6 -11.8553
9 3 12.8 0 0 -11.2726
10 1 14.4 1.6 1.6 -11.828
11 2 16 0 0 -9.74121
12 1 17.6 1.6 1.6 -11.7975
13 3 19.2 0 0 -11.1229
14 1 20.8 1.6 1.6 -11.8123
15 3 22.4 0 0 -11.2423
16 1 24 1.6 1.6 -11.8123
17 3 25.6 0 0 -11.2378
18 1 27.2 1.6 1.6 -11.7983
19 3 28.8 0 0 -11.2731
20 1 30.4 1.6 1.6 -11.8555
21 3 32 0 0 -11.3091
22 4 33.6 1.6 1.6 -13.3598
23 3 35.2 0 0 -11.2734
24 1 36.8 1.6 1.6 -11.7961
25 3 38.4 0 0 -11.2005
26 1 40 1.6 1.6 -11.7844
27 3 41.6 0 0 -11.2423
28 1 43.2 1.6 1.6 -11.8121
29 3 44.8 0 0 -11.2397
30 1 46.4 1.6 1.6 -11.8258
31 2 48 0 0 -9.77636
32 1 49.6 1.6 1.6 -11.8418
33 3 0 3.2 0 -11.2384
34 1 1.6 4.8 1.6 -11.8595
35 3 3.2 3.2 0 -11.2756
36 4 4.8 4.8 1.6 -13.2569
37 3 6.4 3.2 0 -11.2371
38 1 8 4.8 1.6 -11.7662
39 3 9.6 3.2 0 -11.2761
40 1 11.2 4.8 1.6 -11.8259
41 3 12.8 3.2 0 -11.2381
42 1 14.4 4.8 1.6 -11.8059
43 3 16 3.2 0 -11.2359
44 4 17.6 4.8 1.6 -13.3358
45 3 19.2 3.2 0 -11.2387
46 1 20.8 4.8 1.6 -11.828
47 3 22.4 3.2 0 -11.2417
48 1 24 4.8 1.6 -11.8557
49 3 25.6 3.2 0 -11.2417
50 1 27.2 4.8 1.6 -11.8555
51 3 28.8 3.2 0 -11.2759
52 4 30.4 4.8 1.6 -13.3609
53 3 32 3.2 0 -11.3362
54 4 33.6 4.8 1.6 -13.3731
55 2 35.2 3.2 0 -9.80819
56 1 36.8 4.8 1.6 -11.802
57 2 38.4 3.2 0 -9.71404
58 1 40 4.8 1.6 -11.7996
59 3 41.6 3.2 0 -11.1985
60 1 43.2 4.8 1.6 -11.7976
61 3 44.8 3.2 0 -11.2764
62 1 46.4 4.8 1.6 -11.7506
63 3 48 3.2 0 -11.1655
64 1 49.6 4.8 1.6 -11.7809
65 3 0 6.4 0 -11.2042
66 1 1.6 8 1.6 -11.8119
67 3 3.2 6.4 0 -11.2403
68 1 4.8 8 1.6 -11.752
69 2 6.4 6.4 0 -9.71966
70 1 8 8 1.6 -11.749
71 3 9.6 6.4 0 -11.2022
72 1 11.2 8 1.6 -11.7695
73 2 12.8 6.4 0 -9.77499
74 4 14.4 8 1.6 -13.3301
75 3 16 6.4 0 -11.2298
76 4 17.6 8 1.6 -13.3354
77 3 19.2 6.4 0 -11.2734
78 1 20.8 8 1.6 -11.8419
79 3 22.4 6.4 0 -11.2756
80 4 24 8 1.6 -13.4037
81 3 25.6 6.4 0 -11.2756
82 1 27.2 8 1.6 -11.8694
83 3 28.8 6.4 0 -11.2378
84 1 30.4 8 1.6 -11.842
85 3 32 6.4 0 -11.3047
86 1 33.6 8 1.6 -11.7852
87 3 35.2 6.4 0 -11.2303
88 1 36.8 8 1.6 -11.757
89 3 38.4 6.4 0 -11.2405
90 1 40 8 1.6 -11.8159
91 3 41.6 6.4 0 -11.2767
92 1 43.2 8 1.6 -11.8017
93 3 44.8 6.4 0 -11.1988
94 1 46.4 8 1.6 -11.768
95 2 48 6.4 0 -9.70671
96 1 49.6 8 1.6 -11.7679
97 3 0 9.6 0 -11.2032
98 1 1.6 11.2 1.6 -11.7507
99 3 3.2 9.6 0 -11.2032
100 4 4.8 11.2 1.6 -13.3049
101 2 6.4 9.6 0 -9.81206
102 4 8 11.2 1.6 -13.2975
103 3 9.6 9.6 0 -11.2671
104 1 11.2 11.2 1.6 -11.7491
105 2 12.8 9.6 0 -9.7866
106 4 14.4 11.2 1.6 -13.3168
107 2 16 9.6 0 -9.84501
108 1 17.6 11.2 1.6 -11.7989
109 3 19.2 9.6 0 -11.2382
110 1 20.8 11.2 1.6 -11.8253
111 3 22.4 9.6 0 -11.307
112 4 24 11.2 1.6 -13.4028
113 3 25.6 9.6 0 -11.3076
114 1 27.2 11.2 1.6 -11.7832
115 3 28.8 9.6 0 -11.2397
116 4 30.4 11.2 1.6 -13.328
117 3 32 9.6 0 -11.2717
118 4 33.6 11.2 1.6 -13.3207
119 2 35.2 9.6 0 -9.77669
120 1 36.8 11.2 1.6 -11.7498
121 3 38.4 9.6 0 -11.2366
122 4 40 11.2 1.6 -13.3
123 3 41.6 9.6 0 -11.2028
124 1 43.2 11.2 1.6 -11.7601
125 3 44.8 9.6 0 -11.1244
126 1 46.4 11.2 1.6 -11.7582
127 3 48 9.6 0 -11.2033
128 4 49.6 11.2 1.6 -13.2736
129 2 0 12.8 0 -9.78759
130 2 1.6 14.4 1.6 -9.81187
131 2 3.2 12.8 0 -9.8129
132 2 4.8 14.4 1.6 -9.81137
133 2 6.4 12.8 0 -9.76669
134 4 8 14.4 1.6 -13.2866
135 2 9.6 12.8 0 -9.86806
136 2 11.2 14.4 1.6 -9.81212
137 2 12.8 12.8 0 -9.83538
138 2 14.4 14.4 1.6 -9.86302
139 4 16 12.8 0 -13.3346
140 4 17.6 14.4 1.6 -13.2728
141 2 19.2 12.8 0 -9.75369
142 1 20.8 14.4 1.6 -11.7338
143 3 22.4 12.8 0 -11.1947
144 4 24 14.4 1.6 -13.3261
145 3 25.6 12.8 0 -11.1554
146 1 27.2 14.4 1.6 -11.6822
147 2 28.8 12.8 0 -9.71291
148 1 30.4 14.4 1.6 -11.7122
149 3 32 12.8 0 -11.2964
150 2 33.6 14.4 1.6 -9.84952
151 2 35.2 12.8 0 -9.82105
152 4 36.8 14.4 1.6 -13.266
153 3 38.4 12.8 0 -11.2943
154 4 40 14.4 1.6 -13.3059
155 3 41.6 12.8 0 -11.2566
156 2 43.2 14.4 1.6 -9.83247
157 4 44.8 12.8 0 -13.2393
158 2 46.4 14.4 1.6 -9.8686
159 2 48 12.8 0 -9.81095
160 2 49.6 14.4 1.6 -9.91427
161 4 0 16 0 -13.3811
162 2 1.6 17.6 1.6 -9.81559
163 2 3.2 16 0 -9.81937
164 4 4.8 17.6 1.6 -13.2847
165 1 6.4 16 0 -11.6777
166 2 8 17.6 1.6 -9.70117
167 4 9.6 16 0 -13.2533
168 2 11.2 17.6 1.6 -9.69452
169 4 12.8 16 0 -13.2808
170 2 14.4 17.6 1.6 -9.78977
171 2 16 16 0 -9.80276
172 2 17.6 17.6 1.6 -9.86969
173 2 19.2 16 0 -9.81284
174 2 20.8 17.6 1.6 -9.84304
175 4 22.4 16 0 -13.2297
176 3 24 17.6 1.6 -11.2409
177 2 25.6 16 0 -9.78582
178 2 27.2 17.6 1.6 -9.86521
179 2 28.8 16 0 -9.78156
180 4 30.4 17.6 1.6 -13.3213
181 2 32 16 0 -9.82455
182 3 33.6 17.6 1.6 -11.3236
183 4 35.2 16 0 -13.3474
184 3 36.8 17.6 1.6 -11.2578
185 4 38.4 16 0 -13.3217
186 2 40 17.6 1.6 -9.84782
187 2 41.6 16 0 -9.86431
188 2 43.2 17.6 1.6 -9.81509
189 2 44.8 16 0 -9.84372
190 3 46.4 17.6 1.6 -11.3551
191 4 48 16 0 -13.3939
192 3 49.6 17.6 1.6 -11.3245
193 1 0 19.2 0 -11.8264
194 2 1.6 20.8 1.6 -9.80816
195 4 3.2 19.2 0 -13.355
196 3 4.8 20.8 1.6 -11.2981
197 1 6.4 19.2 0 -11.7212
198 3 8 20.8 1.6 -11.1612
199 1 9.6 19.2 0 -11.6677
200 2 11.2 20.8 1.6 -9.64817
201 1 12.8 19.2 0 -11.6672
202 3 14.4 20.8 1.6 -11.1966
203 1 16 19.2 0 -11.7465
204 3 17.6 20.8 1.6 -11.2322
205 1 19.2 19.2 0 -11.762
206 3 20.8 20.8 1.6 -11.2714
207 1 22.4 19.2 0 -11.771
208 3 24 20.8 1.6 -11.2747
209 1 25.6 19.2 0 -11.8059
210 3 27.2 20.8 1.6 -11.3066
211 4 28.8 19.2 0 -13.3534
212 3 30.4 20.8 1.6 -11.3038
213 4 32 19.2 0 -13.3854
214 3 33.6 20.8 1.6 -11.3076
215 1 35.2 19.2 0 -11.8569
216 3 36.8 20.8 1.6 -11.2737
217 4 38.4 19.2 0 -13.3292
218 2 40 20.8 1.6 -9.77838
219 4 41.6 19.2 0 -13.3006
220 3 43.2 20.8 1.6 -11.2369
221 4 44.8 19.2 0 -13.3822
222 3 46.4 20.8 1.6 -11.3028
223 4 48 19.2 0 -13.401
224 3 49.6 20.8 1.6 -11.2705
225 1 0 22.4 0 -11.7701
226 2 1.6 24 1.6 -9.74662
227 4 3.2 22.4 0 -13.3272
228 3 4.8 24 1.6 -11.3055
229 1 6.4 22.4 0 -11.8394
230 3 8 24 1.6 -11.2758
231 1 9.6 22.4 0 -11.7508
232 3 11.2 24 1.6 -11.2042
233 1 12.8 22.4 0 -11.7205
234 3 14.4 24 1.6 -11.2402
235 1 16 22.4 0 -11.7654
236 3 17.6 24 1.6 -11.3018
237 1 19.2 22.4 0 -11.839
238 3 20.8 24 1.6 -11.3054
239 1 22.4 22.4 0 -11.8278
240 3 24 24 1.6 -11.1988
241 1 25.6 22.4 0 -11.7981
242 3 27.2 24 1.6 -11.272
243 1 28.8 22.4 0 -11.8414
244 3 30.4 24 1.6 -11.2417
245 1 32 22.4 0 -11.8555
246 3 33.6 24 1.6 -11.2417
247 1 35.2 22.4 0 -11.8122
248 3 36.8 24 1.6 -11.2381
249 1 38.4 22.4 0 -11.798
250 3 40 24 1.6 -11.239
251 1 41.6 22.4 0 -11.8133
252 3 43.2 24 1.6 -11.2018
253 1 44.8 22.4 0 -11.8417
254 3 46.4 24 1.6 -11.2761
255 1 48 22.4 0 -11.8695
256 3 49.6 24 1.6 -11.2039
257 1 0 25.6 0 -11.781
259 1 3.2 25.6 0 -11.8116
261 4 6.4 25.6 0 -13.3845
263 1 9.6 25.6 0 -11.8557
265 1 12.8 25.6 0 -11.8284
267 4 16 25.6 0 -13.3092
269 4 19.2 25.6 0 -13.3516
271 1 22.4 25.6 0 -11.7541
273 4 25.6 25.6 0 -13.2666
275 1 28.8 25.6 0 -11.7982
277 1 32 25.6 0 -11.8557
279 1 35.2 25.6 0 -11.7809
281 1 38.4 25.6 0 -11.7637
283 1 41.6 25.6 0 -11.7919
285 4 44.8 25.6 0 -13.3365
287 1 48 25.6 0 -11.8556
258 3 1.6 27.2 1.6 -11.1235
289 1 0 28.8 0 -11.8417
260 3 4.8 27.2 1.6 -11.2331
291 1 3.2 28.8 0 -11.8281
262 3 8 27.2 1.6 -11.272
293 4 6.4 28.8 0 -13.2998
264 3 11.2 27.2 1.6 -11.242
295 1 9.6 28.8 0 -11.8162
266 3 14.4 27.2 1.6 -11.2759
297 1 12.8 28.8 0 -11.8414
268 2 17.6 27.2 1.6 -9.79182
299 1 16 28.8 0 -11.8139
270 2 20.8 27.2 1.6 -9.78605
301 1 19.2 28.8 0 -11.787
272 2 24 27.2 1.6 -9.75563
303 1 22.4 28.8 0 -11.7599
305 4 25.6 28.8 0 -13.3033
274 3 27.2 27.2 1.6 -11.2709
307 1 28.8 28.8 0 -11.8289
276 3 30.4 27.2 1.6 -11.2397
309 4 32 28.8 0 -13.3285
278 3 33.6 27.2 1.6 -11.24
311 1 35.2 28.8 0 -11.7349
280 3 36.8 27.2 1.6 -11.1999
313 1 38.4 28.8 0 -11.6226
282 3 40 27.2 1.6 -11.1555
315 1 41.6 28.8 0 -11.7235
284 2 43.2 27.2 1.6 -9.80389
317 1 44.8 28.8 0 -11.8152
286 3 46.4 27.2 1.6 -11.2391
319 1 48 28.8 0 -11.8414
288 3 49.6 27.2 1.6 -11.2423
290 3 1.6 30.4 1.6 -11.1632
321 1 0 32 0 -11.8019
292 2 4.8 30.4 1.6 -9.74949
323 1 3.2 32 0 -11.7704
294 2 8 30.4 1.6 -9.71986
325 1 6.4 32 0 -11.7563
296 3 11.2 30.4 1.6 -11.201
327 4 9.6 32 0 -13.3285
298 3 14.4 30.4 1.6 -11.202
329 1 12.8 32 0 -11.8697
300 3 17.6 30.4 1.6 -11.275
331 1 16 32 0 -11.8122
302 3 20.8 30.4 1.6 -11.1604
333 1 19.2 32 0 -11.7807
304 2 24 30.4 1.6 -9.7769
335 1 22.4 32 0 -11.77
337 1 25.6 32 0 -11.7676
306 3 27.2 30.4 1.6 -11.2022
339 1 28.8 32 0 -11.7366
308 2 30.4 30.4 1.6 -9.71256
341 1 32 32 0 -11.7095
310 2 33.6 30.4 1.6 -9.72208
343 1 35.2 32 0 -11.6852
312 2 36.8 30.4 1.6 -9.69131
345 1 38.4 32 0 -11.6212
314 4 40 30.4 1.6 -13.1866
347 2 41.6 32 0 -9.73918
316 3 43.2 30.4 1.6 -11.2258
349 4 44.8 32 0 -13.3811
318 3 46.4 30.4 1.6 -11.3078
351 1 48 32 0 -11.8414
320 3 49.6 30.4 1.6 -11.2423
322 2 1.6 33.6 1.6 -9.80733
353 4 0 35.2 0 -13.3341
324 2 4.8 33.6 1.6 -9.74717
355 1 3.2 35.2 0 -11.7958
326 3 8 33.6 1.6 -11.2317
357 1 6.4 35.2 0 -11.8323
328 3 11.2 33.6 1.6 -11.3388
359 4 9.6 35.2 0 -13.3988
330 3 14.4 33.6 1.6 -11.2408
361 4 12.8 35.2 0 -13.3793
332 3 17.6 33.6 1.6 -11.1251
363 1 16 35.2 0 -11.7673
334 3 20.8 33.6 1.6 -11.1648
365 1 19.2 35.2 0 -11.758
336 3 24 33.6 1.6 -11.1639
367 4 22.4 35.2 0 -13.2469
369 1 25.6 35.2 0 -11.7157
338 3 27.2 33.6 1.6 -11.1634
371 1 28.8 35.2 0 -11.6921
340 2 30.4 33.6 1.6 -9.72478
373 4 32 35.2 0 -13.2908
342 2 33.6 33.6 1.6 -9.78506
375 4 35.2 35.2 0 -13.2201
344 2 36.8 33.6 1.6 -9.76265
377 2 38.4 35.2 0 -9.79227
346 4 40 33.6 1.6 -13.251
379 2 41.6 35.2 0 -9.84045
348 2 43.2 33.6 1.6 -9.8937
381 4 44.8 35.2 0 -13.2945
350 3 46.4 33.6 1.6 -11.2651
383 1 48 35.2 0 -11.8159
352 3 49.6 33.6 1.6 -11.1984
354 3 1.6 36.8 1.6 -11.2973
385 4 0 38.4 0 -13.3166
356 3 4.8 36.8 1.6 -11.236
387 1 3.2 38.4 0 -11.8185
358 2 8 36.8 1.6 -9.78286
389 4 6.4 38.4 0 -13.3004
360 3 11.2 36.8 1.6 -11.2966
391 4 9.6 38.4 0 -13.3242
362 2 14.4 36.8 1.6 -9.81558
393 4 12.8 38.4 0 -13.346
364 2 17.6 36.8 1.6 -9.78492
395 1 16 38.4 0 -11.7678
366 4 20.8 36.8 1.6 -13.2707
397 2 19.2 38.4 0 -9.80162
368 2 24 36.8 1.6 -9.76386
399 4 22.4 38.4 0 -13.2553
401 4 25.6 38.4 0 -13.3228
370 2 27.2 36.8 1.6 -9.73594
403 2 28.8 38.4 0 -9.7905
372 4 30.4 36.8 1.6 -13.2851
405 3 32 38.4 0 -11.2556
374 2 33.6 36.8 1.6 -9.7997
407 2 35.2 38.4 0 -9.84286
376 4 36.8 36.8 1.6 -13.3236
409 3 38.4 38.4 0 -11.2664
378 4 40 36.8 1.6 -13.3641
411 2 41.6 38.4 0 -9.84213
380 2 43.2 36.8 1.6 -9.85083
413 1 44.8 38.4 0 -11.7006
382 2 46.4 36.8 1.6 -9.8189
415 4 48 38.4 0 -13.2655
384 2 49.6 36.8 1.6 -9.86604
386 2 1.6 40 1.6 -9.8178
417 4 0 41.6 0 -13.2224
388 2 4.8 40 1.6 -9.76375
419 4 3.2 41.6 0 -13.2277
390 4 8 40 1.6 -13.1496
421 4 6.4 41.6 0 -13.3009
392 2 11.2 40 1.6 -9.79318
423 2 9.6 41.6 0 -9.78636
394 2 14.4 40 1.6 -9.76551
425 4 12.8 41.6 0 -13.2926
396 4 17.6 40 1.6 -13.2355
427 4 16 41.6 0 -13.1989
398 1 20.8 40 1.6 -11.6694
429 2 19.2 41.6 0 -9.76531
400 4 24 40 1.6 -13.258
431 2 22.4 41.6 0 -9.78599
433 3 25.6 41.6 0 -11.3166
402 4 27.2 40 1.6 -13.2945
435 3 28.8 41.6 0 -11.3369
404 1 30.4 40 1.6 -11.7532
437 3 32 41.6 0 -11.3099
406 1 33.6 40 1.6 -11.7721
439 3 35.2 41.6 0 -11.2005
408 1 36.8 40 1.6 -11.7509
441 3 38.4 41.6 0 -11.2023
410 4 40 40 1.6 -13.3524
443 2 41.6 41.6 0 -9.81571
412 2 43.2 40 1.6 -9.80096
445 4 44.8 41.6 0 -13.2148
414 4 46.4 40 1.6 -13.278
447 2 48 41.6 0 -9.76649
416 2 49.6 40 1.6 -9.76339
418 2 1.6 43.2 1.6 -9.70283
449 2 0 44.8 0 -9.76473
420 4 4.8 43.2 1.6 -13.248
451 4 3.2 44.8 0 -13.2929
422 2 8 43.2 1.6 -9.72989
453 4 6.4 44.8 0 -13.2601
424 4 11.2 43.2 1.6 -13.3328
455 2 9.6 44.8 0 -9.79302
426 4 14.4 43.2 1.6 -13.3248
457 3 12.8 44.8 0 -11.2318
428 4 17.6 43.2 1.6 -13.2575
459 3 16 44.8 0 -11.2289
430 1 20.8 43.2 1.6 -11.7428
461 3 19.2 44.8 0 -11.2658
432 4 24 43.2 1.6 -13.3232
463 2 22.4 44.8 0 -9.83708
465 3 25.6 44.8 0 -11.2675
434 4 27.2 43.2 1.6 -13.3828
467 3 28.8 44.8 0 -11.3089
436 1 30.4 43.2 1.6 -11.8696
469 3 32 44.8 0 -11.2753
438 1 33.6 43.2 1.6 -11.828
471 3 35.2 44.8 0 -11.2423
440 1 36.8 43.2 1.6 -11.7985
473 3 38.4 44.8 0 -11.3073
442 1 40 43.2 1.6 -11.8149
475 3 41.6 44.8 0 -11.3
444 1 43.2 43.2 1.6 -11.7343
477 2 44.8 44.8 0 -9.76106
446 4 46.4 43.2 1.6 -13.1543
479 2 48 44.8 0 -9.76259
448 1 49.6 43.2 1.6 -11.6889
450 4 1.6 46.4 1.6 -13.3797
481 3 0 48 0 -11.3016
452 4 4.8 46.4 1.6 -13.2754
483 3 3.2 48 0 -11.3003
454 4 8 46.4 1.6 -13.2869
485 2 6.4 48 0 -9.794
456 1 11.2 46.4 1.6 -11.7721
487 2 9.6 48 0 -9.79047
458 1 14.4 46.4 1.6 -11.8112
489 3 12.8 48 0 -11.203
460 4 17.6 46.4 1.6 -13.2987
491 2 16 48 0 -9.65192
462 1 20.8 46.4 1.6 -11.8171
493 2 19.2 48 0 -9.77549
464 1 24 46.4 1.6 -11.828
495 3 22.4 48 0 -11.2015
497 3 25.6 48 0 -11.2761
466 1 27.2 46.4 1.6 -11.8554
499 3 28.8 48 0 -11.3089
468 1 30.4 46.4 1.6 -11.8556
501 3 32 48 0 -11.2758
470 1 33.6 46.4 1.6 -11.8414
503 3 35.2 48 0 -11.2015
472 1 36.8 46.4 1.6 -11.8555
505 3 38.4 48 0 -11.3395
474 4 40 46.4 1.6 -13.4037
507 3 41.6 48 0 -11.3383
476 4 43.2 46.4 1.6 -13.3201
509 3 44.8 48 0 -11.2338
478 4 46.4 46.4 1.6 -13.2655
511 2 48 48 0 -9.78743
480 4 49.6 46.4 1.6 -13.2841
482 1 1.6 49.6 1.6 -11.871
484 4 4.8 49.6 1.6 -13.3303
486 4 8 49.6 1.6 -13.2972
488 4 11.2 49.6 1.6 -13.3577
490 1 14.4 49.6 1.6 -11.7632
492 1 17.6 49.6 1.6 -11.7322
494 1 20.8 49.6 1.6 -11.7842
496 1 24 49.6 1.6 -11.8122
498 1 27.2 49.6 1.6 -11.8274
500 4 30.4 49.6 1.6 -13.3383
502 1 33.6 49.6 1.6 -11.8836
504 1 36.8 49.6 1.6 -11.8554
506 1 40 49.6 1.6 -11.8694
508 1 43.2 49.6 1.6 -11.8433
510 1 46.4 49.6 1.6 -11.7911
512 4 49.6 49.6 1.6 -13.3041
513 3 0 0 3.2 -11.2736
514 1 1.6 1.6 4.8 -11.7854
515 2 3.2 0 3.2 -9.80733
516 1 4.8 1.6 4.8 -11.7655
517 3 6.4 0 3.2 -11.2339
518 1 8 1.6 4.8 -11.8413
519 3 9.6 0 3.2 -11.3061
520 1 11.2 1.6 4.8 -11.8701
521 3 12.8 0 3.2 -11.3078
522 1 14.4 1.6 4.8 -11.8278
523 3 16 0 3.2 -11.1613
524 1 17.6 1.6 4.8 -11.8289
525 2 19.2 0 3.2 -9.76911
526 1 20.8 1.6 4.8 -11.798
527 3 22.4 0 3.2 -11.1652
528 1 24 1.6 4.8 -11.7699
529 2 25.6 0 3.2 -9.77465
530 4 27.2 1.6 4.8 -13.284
531 2 28.8 0 3.2 -9.78182
532 1 30.4 1.6 4.8 -11.7979
533 3 32 0 3.2 -11.3061
534 1 33.6 1.6 4.8 -11.8839
535 3 35.2 0 3.2 -11.3089
536 1 36.8 1.6 4.8 -11.8552
537 3 38.4 0 3.2 -11.2758
538 1 40 1.6 4.8 -11.8422
539 3 41.6 0 3.2 -11.27
540 1 43.2 1.6 4.8 -11.8394
541 3 44.8 0 3.2 -11.3047
542 4 46.4 1.6 4.8 -13.3839
543 3 48 0 3.2 -11.2689
544 1 49.6 1.6 4.8 -11.8554
545 3 0 3.2 3.2 -11.2751
546 4 1.6 4.8 4.8 -13.282
547 2 3.2 3.2 3.2 -9.77947
548 1 4.8 4.8 4.8 -11.7322
549 3 6.4 3.2 3.2 -11.1635
550 1 8 4.8 4.8 -11.7935
551 3 9.6 3.2 3.2 -11.2759
552 4 11.2 4.8 4.8 -13.3839
553 3 12.8 3.2 3.2 -11.3078
554 4 14.4 4.8 4.8 -13.3519
555 3 16 3.2 3.2 -11.2354
556 4 17.6 4.8 4.8 -13.2995
557 3 19.2 3.2 3.2 -11.2361
558 1 20.8 4.8 4.8 -11.7863
559 3 22.4 3.2 3.2 -11.2045
560 1 24 4.8 4.8 -11.7554
561 3 25.6 3.2 3.2 -11.2026
562 1 27.2 4.8 4.8 -11.798
563 3 28.8 3.2 3.2 -11.2732
564 1 30.4 4.8 4.8 -11.8288
565 3 32 3.2 3.2 -11.3367
566 4 33.6 4.8 4.8 -13.3188
567 3 35.2 3.2 3.2 -11.3007
568 4 36.8 4.8 4.8 -13.3748
569 3 38.4 3.2 3.2 -11.2326
570 4 40 4.8 4.8 -13.3771
571 2 41.6 3.2 3.2 -9.769
572 1 43.2 4.8 4.8 -11.7846
573 3 44.8 3.2 3.2 -11.1988
574 1 46.4 4.8 4.8 -11.7526
575 3 48 3.2 3.2 -11.2387
576 1 49.6 4.8 4.8 -11.7939
577 3 0 6.4 3.2 -11.1996
578 1 1.6 8 4.8 -11.7544
579 3 3.2 6.4 3.2 -11.1593
580 1 4.8 8 4.8 -11.7359
581 4 6.4 6.4 3.2 -13.1045
582 1 8 8 4.8 -11.7652
583 3 9.6 6.4 3.2 -11.1994
584 1 11.2 8 4.8 -11.7622
585 3 12.8 6.4 3.2 -11.2594
586 2 14.4 8 4.8 -9.82792
587 4 16 6.4 3.2 -13.3465
588 4 17.6 8 4.8 -13.3162
589 2 19.2 6.4 3.2 -9.78373
590 1 20.8 8 4.8 -11.7607
591 3 22.4 6.4 3.2 -11.271
592 4 24 8 4.8 -13.3237
593 3 25.6 6.4 3.2 -11.2687
594 4 27.2 8 4.8 -13.3073
595 3 28.8 6.4 3.2 -11.2732
596 1 30.4 8 4.8 -11.7701
597 2 32 6.4 3.2 -9.77699
598 1 33.6 8 4.8 -11.7279
599 2 35.2 6.4 3.2 -9.77855
600 1 36.8 8 4.8 -11.7995
601 3 38.4 6.4 3.2 -11.2664
602 4 40 8 4.8 -13.3731
603 3 41.6 6.4 3.2 -11.23
604 4 43.2 8 4.8 -13.3292
605 2 44.8 6.4 3.2 -9.74711
606 4 46.4 8 4.8 -13.2705
607 2 48 6.4 3.2 -9.68501
608 1 49.6 8 4.8 -11.7721
609 2 0 9.6 3.2 -9.75382
610 4 1.6 11.2 4.8 -13.2278
611 3 3.2 9.6 3.2 -11.234
612 4 4.8 11.2 4.8 -13.3264
613 3 6.4 9.6 3.2 -11.1901
614 4 8 11.2 4.8 -13.2666
615 3 9.6 9.6 3.2 -11.1975
616 1 11.2 11.2 4.8 -11.6805
617 2 12.8 9.6 3.2 -9.7823
618 4 14.4 11.2 4.8 -13.3656
619 3 16 9.6 3.2 -11.3174
620 4 17.6 11.2 4.8 -13.3819
621 3 19.2 9.6 3.2 -11.2702
622 1 20.8 11.2 4.8 -11.768
623 3 22.4 9.6 3.2 -11.2989
624 4 24 11.2 4.8 -13.3194
625 3 25.6 9.6 3.2 -11.3304
626 1 27.2 11.2 4.8 -11.7291
627 3 28.8 9.6 3.2 -11.2365
628 1 30.4 11.2 4.8 -11.7321
629 3 32 9.6 3.2 -11.2328
630 1 33.6 11.2 4.8 -11.7365
631 3 35.2 9.6 3.2 -11.1204
632 4 36.8 11.2 4.8 -13.267
633 2 38.4 9.6 3.2 -9.81065
634 4 40 11.2 4.8 -13.3673
635 2 41.6 9.6 3.2 -9.83874
636 4 43.2 11.2 4.8 -13.345
637 3 44.8 9.6 3.2 -11.1925
638 4 46.4 11.2 4.8 -13.3569
639 3 48 9.6 3.2 -11.2659
640 4 49.6 11.2 4.8 -13.3016
641 4 0 12.8 3.2 -13.2798
642 4 1.6 14.4 4.8 -13.2449
643 2 3.2 12.8 3.2 -9.81846
644 2 4.8 14.4 4.8 -9.81998
645 4 6.4 12.8 3.2 -13.2744
646 4 8 14.4 4.8 -13.2794
647 2 9.6 12.8 3.2 -9.79421
648 4 11.2 14.4 4.8 -13.3325
649 2 12.8 12.8 3.2 -9.84082
650 2 14.4 14.4 4.8 -9.81568
651 3 16 12.8 3.2 -11.2832
652 1 17.6 14.4 4.8 -11.7663
653 3 19.2 12.8 3.2 -11.2381
654 1 20.8 14.4 4.8 -11.7639
655 3 22.4 12.8 3.2 -11.266
656 4 24 14.4 4.8 -13.2848
657 2 25.6 12.8 3.2 -9.77624
658 1 27.2 14.4 4.8 -11.6602
659 2 28.8 12.8 3.2 -9.68825
660 4 30.4 14.4 4.8 -13.209
661 3 32 12.8 3.2 -11.2143
662 2 33.6 14.4 4.8 -9.76313
663 4 35.2 12.8 3.2 -13.2528
664 2 36.8 14.4 4.8 -9.78929
665 2 38.4 12.8 3.2 -9.79502
666 4 40 14.4 4.8 -13.3486
667 2 41.6 12.8 3.2 -9.87271
668 2 43.2 14.4 4.8 -9.82914
669 2 44.8 12.8 3.2 -9.81297
670 2 46.4 14.4 4.8 -9.89316
671 2 48 12.8 3.2 -9.85751
672 3 49.6 14.4 4.8 -11.3037
673 4 0 16 3.2 -13.2895
674 2 1.6 17.6 4.8 -9.69823
675 4 3.2 16 3.2 -13.2804
676 2 4.8 17.6 4.8 -9.79228
677 2 6.4 16 3.2 -9.78619
678 4 8 17.6 4.8 -13.3211
679 2 9.6 16 3.2 -9.81497
680 2 11.2 17.6 4.8 -9.72215
681 1 12.8 16 3.2 -11.7154
682 2 14.4 17.6 4.8 -9.81927
683 4 16 16 3.2 -13.3511
684 2 17.6 17.6 4.8 -9.83751
685 2 19.2 16 3.2 -9.81226
686 2 20.8 17.6 4.8 -9.85294
687 2 22.4 16 3.2 -9.83929
688 4 24 17.6 4.8 -13.3733
689 2 25.6 16 3.2 -9.8355
690 2 27.2 17.6 4.8 -9.86844
691 2 28.8 16 3.2 -9.72826
692 2 30.4 17.6 4.8 -9.81921
693 4 32 16 3.2 -13.3239
694 2 33.6 17.6 4.8 -9.78424
695 4 35.2 16 3.2 -13.259
696 2 36.8 17.6 4.8 -9.80961
697 4 38.4 16 3.2 -13.316
698 3 40 17.6 4.8 -11.2153
699 4 41.6 16 3.2 -13.2617
700 2 43.2 17.6 4.8 -9.80849
701 1 44.8 16 3.2 -11.7817
702 3 46.4 17.6 4.8 -11.2598
703 4 48 16 3.2 -13.3971
704 2 49.6 17.6 4.8 -9.86471
705 1 0 19.2 3.2 -11.7724
706 3 1.6 20.8 4.8 -11.2364
707 4 3.2 19.2 3.2 -13.292
708 3 4.8 20.8 4.8 -11.337
709 4 6.4 19.2 3.2 -13.3045
710 3 8 20.8 4.8 -11.1967
711 1 9.6 19.2 3.2 -11.7034
712 2 11.2 20.8 4.8 -9.72072
713 1 12.8 19.2 3.2 -11.6866
714 3 14.4 20.8 4.8 -11.2272
715 2 16 19.2 3.2 -9.79056
716 4 17.6 20.8 4.8 -13.3187
717 4 19.2 19.2 3.2 -13.3792
718 2 20.8 20.8 4.8 -9.89169
719 4 22.4 19.2 3.2 -13.3584
720 2 24 20.8 4.8 -9.79242
721 4 25.6 19.2 3.2 -13.3537
722 3 27.2 20.8 4.8 -11.2985
723 4 28.8 19.2 3.2 -13.3796
724 3 30.4 20.8 4.8 -11.3063
725 4 32 19.2 3.2 -13.3311
726 3 33.6 20.8 4.8 -11.24
727 1 35.2 19.2 3.2 -11.8291
728 3 36.8 20.8 4.8 -11.1992
729 4 38.4 19.2 3.2 -13.3013
730 2 40 20.8 4.8 -9.80733
731 1 41.6 19.2 3.2 -11.7628
732 3 43.2 20.8 4.8 -11.1625
733 1 44.8 19.2 3.2 -11.7816
734 2 46.4 20.8 4.8 -9.8
735 4 48 19.2 3.2 -13.3783
736 3 49.6 20.8 4.8 -11.2374
737 1 0 22.4 3.2 -11.7985
738 3 1.6 24 4.8 -11.1979
739 4 3.2 22.4 3.2 -13.3567
740 3 4.8 24 4.8 -11.2703
741 1 6.4 22.4 3.2 -11.8693
742 3 8 24 4.8 -11.2405
743 1 9.6 22.4 3.2 -11.7807
744 3 11.2 24 4.8 -11.2685
745 1 12.8 22.4 3.2 -11.796
746 3 14.4 24 4.8 -11.3
747 1 16 22.4 3.2 -11.8159
748 2 17.6 24 4.8 -9.79183
749 4 19.2 22.4 3.2 -13.352
750 3 20.8 24 4.8 -11.2786
751 1 22.4 22.4 3.2 -11.8006
752 2 24 24 4.8 -9.84124
753 1 25.6 22.4 3.2 -11.8288
754 3 27.2 24 4.8 -11.3019
755 1 28.8 22.4 3.2 -11.8552
756 3 30.4 24 4.8 -11.2417
757 1 32 22.4 3.2 -11.8556
758 3 33.6 24 4.8 -11.2753
759 1 35.2 22.4 3.2 -11.8412
760 3 36.8 24 4.8 -11.3417
761 1 38.4 22.4 3.2 -11.8274
762 3 40 24 4.8 -11.2731
763 1 41.6 22.4 3.2 -11.7804
764 3 43.2 24 4.8 -11.2426
765 1 44.8 22.4 3.2 -11.8121
766 3 46.4 24 4.8 -11.1999
767 1 48 22.4 3.2 -11.828
768 3 49.6 24 4.8 -11.277
769 1 0 25.6 3.2 -11.7537
771 1 3.2 25.6 3.2 -11.7533
773 1 6.4 25.6 3.2 -11.8419
775 1 9.6 25.6 3.2 -11.8413
777 1 12.8 25.6 3.2 -11.8676
779 1 16 25.6 3.2 -11.7867
781 4 19.2 25.6 3.2 -13.3123
783 1 22.4 25.6 3.2 -11.7781
785 4 25.6 25.6 3.2 -13.3485
787 1 28.8 25.6 3.2 -11.8555
789 1 32 25.6 3.2 -11.8415
791 1 35.2 25.6 3.2 -11.8698
793 4 38.4 25.6 3.2 -13.3639
795 1 41.6 25.6 3.2 -11.8418
797 1 44.8 25.6 3.2 -11.8281
799 1 48 25.6 3.2 -11.8556
770 4 1.6 27.2 4.8 -13.0671
801 1 0 28.8 3.2 -11.7466
772 2 4.8 27.2 4.8 -9.80639
803 1 3.2 28.8 3.2 -11.7248
774 3 8 27.2 4.8 -11.2362
805 1 6.4 28.8 3.2 -11.758
776 3 11.2 27.2 4.8 -11.2683
807 1 9.6 28.8 3.2 -11.7505
778 3 14.4 27.2 4.8 -11.2549
809 1 12.8 28.8 3.2 -11.783
780 4 17.6 27.2 4.8 -13.2776
811 4 16 28.8 3.2 -13.2861
782 2 20.8 27.2 4.8 -9.78944
813 4 19.2 28.8 3.2 -13.2753
784 2 24 27.2 4.8 -9.82073
815 4 22.4 28.8 3.2 -13.2172
817 1 25.6 28.8 3.2 -11.804
786 3 27.2 27.2 4.8 -11.27
819 1 28.8 28.8 3.2 -11.8121
788 3 30.4 27.2 4.8 -11.2423
821 1 32 28.8 3.2 -11.7986
790 3 33.6 27.2 4.8 -11.2756
823 1 35.2 28.8 3.2 -11.7981
792 3 36.8 27.2 4.8 -11.3089
825 1 38.4 28.8 3.2 -11.8136
794 3 40 27.2 4.8 -11.3094
827 4 41.6 28.8 3.2 -13.2869
796 3 43.2 27.2 4.8 -11.2391
829 1 44.8 28.8 3.2 -11.8414
798 3 46.4 27.2 4.8 -11.3078
831 1 48 28.8 3.2 -11.8556
800 3 49.6 27.2 4.8 -11.1944
802 2 1.6 30.4 4.8 -9.71849
833 1 0 32 3.2 -11.8173
804 3 4.8 30.4 4.8 -11.1936
835 4 3.2 32 3.2 -13.2566
806 2 8 30.4 4.8 -9.71117
837 1 6.4 32 3.2 -11.7517
808 2 11.2 30.4 4.8 -9.72188
839 1 9.6 32 3.2 -11.7657
810 4 14.4 30.4 4.8 -13.2371
841 1 12.8 32 3.2 -11.7659
812 3 17.6 30.4 4.8 -11.0629
843 1 16 32 3.2 -11.7898
814 4 20.8 30.4 4.8 -13.2403
845 1 19.2 32 3.2 -11.7705
816 3 24 30.4 4.8 -11.1608
847 1 22.4 32 3.2 -11.7729
849 1 25.6 32 3.2 -11.812
818 3 27.2 30.4 4.8 -11.2051
851 1 28.8 32 3.2 -11.7961
820 3 30.4 30.4 4.8 -11.2022
853 1 32 32 3.2 -11.7778
822 3 33.6 30.4 4.8 -11.304
855 4 35.2 32 3.2 -13.2977
824 3 36.8 30.4 4.8 -11.3287
857 2 38.4 32 3.2 -9.78454
826 3 40 30.4 4.8 -11.3275
859 1 41.6 32 3.2 -11.7869
828 3 43.2 30.4 4.8 -11.3385
861 4 44.8 32 3.2 -13.3512
830 3 46.4 30.4 4.8 -11.2704
863 1 48 32 3.2 -11.8276
832 3 49.6 30.4 4.8 -11.1624
834 3 1.6 33.6 4.8 -11.2314
865 4 0 35.2 3.2 -13.3777
836 3 4.8 33.6 4.8 -11.2759
867 1 3.2 35.2 3.2 -11.8426
838 3 8 33.6 4.8 -11.2022
869 4 6.4 35.2 3.2 -13.2842
840 3 11.2 33.6 4.8 -11.2408
871 1 9.6 35.2 3.2 -11.8136
842 3 14.4 33.6 4.8 -11.195
873 1 12.8 35.2 3.2 -11.8132
844 2 17.6 33.6 4.8 -9.8056
875 1 16 35.2 3.2 -11.7468
846 3 20.8 33.6 4.8 -11.1167
877 1 19.2 35.2 3.2 -11.7334
848 3 24 33.6 4.8 -11.2392
879 1 22.4 35.2 3.2 -11.7612
881 1 25.6 35.2 3.2 -11.7629
850 3 27.2 33.6 4.8 -11.2366
883 4 28.8 35.2 3.2 -13.2639
852 3 30.4 33.6 4.8 -11.329
885 2 32 35.2 3.2 -9.83404
854 3 33.6 33.6 4.8 -11.3133
887 4 35.2 35.2 3.2 -13.3159
856 4 36.8 33.6 4.8 -13.3761
889 2 38.4 35.2 3.2 -9.8716
858 2 40 33.6 4.8 -9.83725
891 2 41.6 35.2 3.2 -9.83799
860 2 43.2 33.6 4.8 -9.84646
893 4 44.8 35.2 3.2 -13.3849
862 2 46.4 33.6 4.8 -9.8648
895 1 48 35.2 3.2 -11.8154
864 3 49.6 33.6 4.8 -11.3042
866 3 1.6 36.8 4.8 -11.3338
897 4 0 38.4 3.2 -13.3738
868 3 4.8 36.8 4.8 -11.3089
899 4 3.2 38.4 3.2 -13.3283
870 2 8 36.8 4.8 -9.74731
901 1 6.4 38.4 3.2 -11.7381
872 3 11.2 36.8 4.8 -11.198
903 1 9.6 38.4 3.2 -11.6844
874 2 14.4 36.8 4.8 -9.79108
905 4 12.8 38.4 3.2 -13.3399
876 2 17.6 36.8 4.8 -9.83489
907 2 16 38.4 3.2 -9.75897
878 2 20.8 36.8 4.8 -9.81175
909 3 19.2 38.4 3.2 -11.2113
880 2 24 36.8 4.8 -9.83373
911 2 22.4 38.4 3.2 -9.7634
913 2 25.6 38.4 3.2 -9.76196
882 4 27.2 36.8 4.8 -13.2669
915 4 28.8 38.4 3.2 -13.1768
884 2 30.4 36.8 4.8 -9.81179
917 2 32 38.4 3.2 -9.78579
886 4 33.6 36.8 4.8 -13.3517
919 2 35.2 38.4 3.2 -9.72839
888 4 36.8 36.8 4.8 -13.224
921 3 38.4 38.4 3.2 -11.2199
890 4 40 36.8 4.8 -13.3233
923 3 41.6 38.4 3.2 -11.3422
892 4 43.2 36.8 4.8 -13.3529
925 2 44.8 38.4 3.2 -9.83261
894 3 46.4 36.8 4.8 -11.2527
927 4 48 38.4 3.2 -13.326
896 3 49.6 36.8 4.8 -11.296
898 3 1.6 40 4.8 -11.2629
929 4 0 41.6 3.2 -13.2306
900 3 4.8 40 4.8 -11.2595
931 1 3.2 41.6 3.2 -11.7259
902 2 8 40 4.8 -9.72088
933 4 6.4 41.6 3.2 -13.1923
904 3 11.2 40 4.8 -11.2245
935 1 9.6 41.6 3.2 -11.6659
906 1 14.4 40 4.8 -11.6878
937 2 12.8 41.6 3.2 -9.81323
908 1 17.6 40 4.8 -11.7246
939 4 16 41.6 3.2 -13.1723
910 1 20.8 40 4.8 -11.713
941 2 19.2 41.6 3.2 -9.6929
912 1 24 40 4.8 -11.7271
943 2 22.4 41.6 3.2 -9.65669
945 2 25.6 41.6 3.2 -9.8064
914 1 27.2 40 4.8 -11.7403
947 3 28.8 41.6 3.2 -11.1974
916 1 30.4 40 4.8 -11.7275
949 3 32 41.6 3.2 -11.2013
918 1 33.6 40 4.8 -11.6936
951 2 35.2 41.6 3.2 -9.71607
920 1 36.8 40 4.8 -11.6557
953 2 38.4 41.6 3.2 -9.74967
922 1 40 40 4.8 -11.714
955 3 41.6 41.6 3.2 -11.2601
924 4 43.2 40 4.8 -13.2751
957 2 44.8 41.6 3.2 -9.79196
926 2 46.4 40 4.8 -9.78832
959 2 48 41.6 3.2 -9.78969
928 2 49.6 40 4.8 -9.84491
930 4 1.6 43.2 4.8 -13.2216
961 2 0 44.8 3.2 -9.81967
932 2 4.8 43.2 4.8 -9.81381
963 2 3.2 44.8 3.2 -9.79363
934 4 8 43.2 4.8 -13.2761
965 2 6.4 44.8 3.2 -9.82022
936 2 11.2 43.2 4.8 -9.82435
967 2 9.6 44.8 3.2 -9.79624
938 4 14.4 43.2 4.8 -13.3205
969 3 12.8 44.8 3.2 -11.2989
940 1 17.6 43.2 4.8 -11.7957
971 3 16 44.8 3.2 -11.2671
942 1 20.8 43.2 4.8 -11.7503
973 3 19.2 44.8 3.2 -11.2727
944 1 24 43.2 4.8 -11.7832
975 3 22.4 44.8 3.2 -11.2026
977 3 25.6 44.8 3.2 -11.2729
946 1 27.2 43.2 4.8 -11.8279
979 3 28.8 44.8 3.2 -11.2756
948 1 30.4 43.2 4.8 -11.8556
981 3 32 44.8 3.2 -11.2759
950 4 33.6 43.2 4.8 -13.3341
983 3 35.2 44.8 3.2 -11.2374
952 4 36.8 43.2 4.8 -13.2414
985 3 38.4 44.8 3.2 -11.2359
954 1 40 43.2 4.8 -11.7445
987 3 41.6 44.8 3.2 -11.2673
956 4 43.2 43.2 4.8 -13.2318
989 4 44.8 44.8 3.2 -13.206
958 4 46.4 43.2 4.8 -13.246
991 2 48 44.8 3.2 -9.79201
960 4 49.6 43.2 4.8 -13.2161
962 4 1.6 46.4 4.8 -13.3156
993 3 0 48 3.2 -11.3333
964 4 4.8 46.4 4.8 -13.2819
995 3 3.2 48 3.2 -11.2916
966 4 8 46.4 4.8 -13.2232
997 2 6.4 48 3.2 -9.84479
968 1 11.2 46.4 4.8 -11.7308
999 2 9.6 48 3.2 -9.78863
970 1 14.4 46.4 4.8 -11.7843
1001 3 12.8 48 3.2 -11.1972
972 1 17.6 46.4 4.8 -11.8436
1003 2 16 48 3.2 -9.7754
974 1 20.8 46.4 4.8 -11.8414
1005 3 19.2 48 3.2 -11.1987
976 1 24 46.4 4.8 -11.8554
1007 3 22.4 48 3.2 -11.2426
1009 3 25.6 48 3.2 -11.2394
978 1 27.2 46.4 4.8 -11.8555
1011 3 28.8 48 3.2 -11.2748
980 1 30.4 46.4 4.8 -11.8412
1013 3 32 48 3.2 -11.3089
982 1 33.6 46.4 4.8 -11.8577
1015 3 35.2 48 3.2 -11.2756
984 1 36.8 46.4 4.8 -11.7981
1017 3 38.4 48 3.2 -11.3091
986 1 40 46.4 4.8 -11.7947
1019 3 41.6 48 3.2 -11.3318
988 4 43.2 46.4 4.8 -13.2933
1021 2 44.8 48 3.2 -9.84441
990 2 46.4 46.4 4.8 -9.78188
1023 2 48 48 3.2 -9.82101
992 4 49.6 46.4 4.8 -13.3481
994 1 1.6 49.6 4.8 -11.8166
996 4 4.8 49.6 4.8 -13.3066
998 1 8 49.6 4.8 -11.7893
1000 4 11.2 49.6 4.8 -13.3027
1002 1 14.4 49.6 4.8 -11.8156
1004 4 17.6 49.6 4.8 -13.3147
1006 1 20.8 49.6 4.8 -11.8281
1008 1 24 49.6 4.8 -11.8415
1010 4 27.2 49.6 4.8 -13.3306
1012 1 30.4 49.6 4.8 -11.8273
1014 4 33.6 49.6 4.8 -13.3639
1016 1 36.8 49.6 4.8 -11.8703
1018 4 40 49.6 4.8 -13.3615
1020 4 43.2 49.6 4.8 -13.3528
1022 4 46.4 49.6 4.8 -13.3469
1024 1 49.6 49.6 4.8 -11.7991
1025 3 0 0 6.4 -11.2435
1026 1 1.6 1.6 8 -11.8122
1027 3 3.2 0 6.4 -11.1625
1028 1 4.8 1.6 8 -11.8121
1029 3 6.4 0 6.4 -11.2411
1030 1 8 1.6 8 -11.7983
1031 3 9.6 0 6.4 -11.201
1032 1 11.2 1.6 8 -11.7873
1033 3 12.8 0 6.4 -11.2405
1034 1 14.4 1.6 8 -11.7996
1035 3 16 0 6.4 -11.2741
1036 4 17.6 1.6 8 -13.3032
1037 3 19.2 0 6.4 -11.2702
1038 4 20.8 1.6 8 -13.3054
1039 3 22.4 0 6.4 -11.2389
1040 1 24 1.6 8 -11.7321
1041 3 25.6 0 6.4 -11.2265
1042 1 27.2 1.6 8 -11.7736
1043 2 28.8 0 6.4 -9.80484
1044 1 30.4 1.6 8 -11.8255
1045 3 32 0 6.4 -11.2384
1046 1 33.6 1.6 8 -11.8551
1047 3 35.2 0 6.4 -11.2753
1048 1 36.8 1.6 8 -11.8572
1049 3 38.4 0 6.4 -11.2764
1050 1 40 1.6 8 -11.7697
1051 3 41.6 0 6.4 -11.2349
1052 1 43.2 1.6 8 -11.7697
1053 3 44.8 0 6.4 -11.301
1054 1 46.4 1.6 8 -11.8113
1055 3 48 0 6.4 -11.2307
1056 1 49.6 1.6 8 -11.828
1057 3 0 3.2 6.4 -11.2403
1058 1 1.6 4.8 8 -11.7703
1059 2 3.2 3.2 6.4 -9.7138
1060 1 4.8 4.8 8 -11.7808
1061 3 6.4 3.2 6.4 -11.2048
1062 1 8 4.8 8 -11.8279
1063 3 9.6 3.2 6.4 -11.2381
1064 1 11.2 4.8 8 -11.8116
1065 3 12.8 3.2 6.4 -11.2328
1066 1 14.4 4.8 8 -11.786
1067 2 16 3.2 6.4 -9.81122
1068 4 17.6 4.8 8 -13.2597
1069 3 19.2 3.2 6.4 -11.2264
1070 4 20.8 4.8 8 -13.3376
1071 2 22.4 3.2 6.4 -9.77916
1072 4 24 4.8 8 -13.2339
1073 2 25.6 3.2 6.4 -9.724
1074 4 27.2 4.8 8 -13.3156
1075 3 28.8 3.2 6.4 -11.2694
1076 4 30.4 4.8 8 -13.4044
1077 3 32 3.2 6.4 -11.3061
1078 4 33.6 4.8 8 -13.3734
1079 3 35.2 3.2 6.4 -11.3364
1080 4 36.8 4.8 8 -13.3209
1081 3 38.4 3.2 6.4 -11.3033
1082 1 40 4.8 8 -11.7799
1083 3 41.6 3.2 6.4 -11.2019
1084 1 43.2 4.8 8 -11.813
1085 3 44.8 3.2 6.4 -11.239
1086 1 46.4 4.8 8 -11.7698
1087 3 48 3.2 6.4 -11.2387
1088 1 49.6 4.8 8 -11.7703
1089 3 0 6.4 6.4 -11.1582
1090 1 1.6 8 8 -11.7576
1091 2 3.2 6.4 6.4 -9.71518
1092 1 4.8 8 8 -11.7961
1093 3 6.4 6.4 6.4 -11.1232
1094 1 8 8 8 -11.8414
1095 3 9.6 6.4 6.4 -11.239
1096 1 11.2 8 8 -11.7631
1097 3 12.8 6.4 6.4 -11.2973
1098 4 14.4 8 8 -13.36
1099 2 16 6.4 6.4 -9.84532
1100 4 17.6 8 8 -13.4194
1101 2 19.2 6.4 6.4 -9.82162
1102 2 20.8 8 8 -9.80905
1103 3 22.4 6.4 6.4 -11.1452