ITEM: TIMESTEP
0
ITEM: NUMBER OF ATOMS
8192
ITEM: BOX BOUNDS pp pp pp
0.0000000000000000e+00 5.1200000000000003e+01
0.0000000000000000e+00 5.1200000000000003e+01
0.0000000000000000e+00 5.1200000000000003e+01
ITEM: ATOMS id type x y z c_eng
1 3 0 0 0 -11.2033
2 1 1.6 1.6 1.6 -11.8414
3 3 3.2 0 0 -11.2417
4 1 4.8 1.6 1.6 -11.8282
5 3 6.4 0 0 -11.2756
6 1 8 1.6 1.6 -11.8259
7 3 9.6 0 0 -11.2756
8 1 11.2 1.6 1.6 -11.8415
9 3 12.8 0 0 -11.2414
10 1 14.4 1.6 1.6 -11.8415
11 3 16 0 0 -11.2756
12 1 17.6 1.6 1.6 -11.8439
13 3 19.2 0 0 -11.3073
14 4 20.8 1.6 1.6 -13.3389
15 3 22.4 0 0 -11.3089
16 1 24 1.6 1.6 -11.8557
17 3 25.6 0 0 -11.2756
18 1 27.2 1.6 1.6 -11.8416
19 3 28.8 0 0 -11.3073
20 1 30.4 1.6 1.6 -11.8555
21 3 32 0 0 -11.3361
22 4 33.6 1.6 1.6 -13.3799
23 3 35.2 0 0 -11.2666
24 1 36.8 1.6 1.6 -11.7783
25 2 38.4 0 0 -9.68501
26 1 40 1.6 1.6 -11.7436
27 2 41.6 0 0 -9.71405
28 1 43.2 1.6 1.6 -11.7528
29 3 44.8 0 0 -11.2039
30 1 46.4 1.6 1.6 -11.8281
31 3 48 0 0 -11.2417
32 1 49.6 1.6 1.6 -11.8557
33 3 0 3.2 0 -11.3086
34 1 1.6 4.8 1.6 -11.8698
35 3 3.2 3.2 0 -11.2756
36 1 4.8 4.8 1.6 -11.7807
37 3 6.4 3.2 0 -11.2381
38 1 8 4.8 1.6 -11.7397
39 3 9.6 3.2 0 -11.2384
40 1 11.2 4.8 1.6 -11.7983
41 3 12.8 3.2 0 -11.2756
42 1 14.4 4.8 1.6 -11.8554
43 3 16 3.2 0 -11.3039
44 1 17.6 4.8 1.6 -11.7983
45 2 19.2 3.2 0 -9.83707
46 1 20.8 4.8 1.6 -11.8139
47 3 22.4 3.2 0 -11.305
48 1 24 4.8 1.6 -11.8556
49 3 25.6 3.2 0 -11.2753
50 1 27.2 4.8 1.6 -11.8123
51 3 28.8 3.2 0 -11.2417
52 1 30.4 4.8 1.6 -11.7807
53 3 32 3.2 0 -11.3383
54 1 33.6 4.8 1.6 -11.8687
55 3 35.2 3.2 0 -11.336
56 4 36.8 4.8 1.6 -13.3604
57 3 38.4 3.2 0 -11.2028
58 1 40 4.8 1.6 -11.7984
59 3 41.6 3.2 0 -11.1645
60 1 43.2 4.8 1.6 -11.781
61 3 44.8 3.2 0 -11.2381
62 1 46.4 4.8 1.6 -11.8396
63 3 48 3.2 0 -11.3089
64 4 49.6 4.8 1.6 -13.3645
65 3 0 6.4 0 -11.3094
66 1 1.6 8 1.6 -11.7698
67 3 3.2 6.4 0 -11.2381
68 1 4.8 8 1.6 -11.7561
69 3 6.4 6.4 0 -11.2032
70 4 8 8 1.6 -13.2702
71 2 9.6 6.4 0 -9.75317
72 4 11.2 8 1.6 -13.2666
73 3 12.8 6.4 0 -11.2662
74 1 14.4 8 1.6 -11.8168
75 3 16 6.4 0 -11.3031
76 1 17.6 8 1.6 -11.8117
77 2 19.2 6.4 0 -9.77442
78 1 20.8 8 1.6 -11.8258
79 3 22.4 6.4 0 -11.2712
80 1 24 8 1.6 -11.8555
81 3 25.6 6.4 0 -11.2756
82 1 27.2 8 1.6 -11.7962
83 3 28.8 6.4 0 -11.2039
84 1 30.4 8 1.6 -11.7657
85 3 32 6.4 0 -11.2731
86 4 33.6 8 1.6 -13.3388
87 3 35.2 6.4 0 -11.3367
88 4 36.8 8 1.6 -13.3225
89 2 38.4 6.4 0 -9.74394
90 1 40 8 1.6 -11.7869
91 3 41.6 6.4 0 -11.2042
92 1 43.2 8 1.6 -11.8555
93 3 44.8 6.4 0 -11.2759
94 1 46.4 8 1.6 -11.812
95 3 48 6.4 0 -11.2716
96 1 49.6 8 1.6 -11.8154
97 3 0 9.6 0 -11.1923
98 4 1.6 11.2 1.6 -13.3202
99 2 3.2 9.6 0 -9.80894
100 4 4.8 11.2 1.6 -13.2895
101 3 6.4 9.6 0 -11.2627
102 4 8 11.2 1.6 -13.3136
103 2 9.6 9.6 0 -9.76308
104 4 11.2 11.2 1.6 -13.2853
105 4 12.8 9.6 0 -13.2422
106 4 14.4 11.2 1.6 -13.2432
107 3 16 9.6 0 -11.2016
108 1 17.6 11.2 1.6 -11.7591
109 3 19.2 9.6 0 -11.2019
110 4 20.8 11.2 1.6 -13.2956
111 3 22.4 9.6 0 -11.2737
112 4 24 11.2 1.6 -13.2969
113 3 25.6 9.6 0 -11.2721
114 4 27.2 11.2 1.6 -13.2986
115 3 28.8 9.6 0 -11.27
116 1 30.4 11.2 1.6 -11.7298
117 3 32 9.6 0 -11.2739
118 1 33.6 11.2 1.6 -11.7689
119 3 35.2 9.6 0 -11.1964
120 4 36.8 11.2 1.6 -13.2036
121 2 38.4 9.6 0 -9.75786
122 4 40 11.2 1.6 -13.2898
123 3 41.6 9.6 0 -11.2685
124 4 43.2 11.2 1.6 -13.3886
125 3 44.8 9.6 0 -11.2352
126 1 46.4 11.2 1.6 -11.7622
127 2 48 9.6 0 -9.74712
128 4 49.6 11.2 1.6 -13.327
129 4 0 12.8 0 -13.3158
130 2 1.6 14.4 1.6 -9.85864
131 2 3.2 12.8 0 -9.84175
132 2 4.8 14.4 1.6 -9.83486
133 2 6.4 12.8 0 -9.86385
134 3 8 14.4 1.6 -11.2054
135 2 9.6 12.8 0 -9.87047
136 4 11.2 14.4 1.6 -13.4117
137 3 12.8 12.8 0 -11.251
138 2 14.4 14.4 1.6 -9.82473
139 2 16 12.8 0 -9.78753
140 4 17.6 14.4 1.6 -13.2571
141 2 19.2 12.8 0 -9.75872
142 1 20.8 14.4 1.6 -11.6915
143 2 22.4 12.8 0 -9.76355
144 4 24 14.4 1.6 -13.2291
145 4 25.6 12.8 0 -13.246
146 2 27.2 14.4 1.6 -9.78996
147 2 28.8 12.8 0 -9.82135
148 2 30.4 14.4 1.6 -9.79025
149 2 32 12.8 0 -9.81837
150 2 33.6 14.4 1.6 -9.78531
151 2 35.2 12.8 0 -9.72965
152 1 36.8 14.4 1.6 -11.6662
153 2 38.4 12.8 0 -9.73398
154 4 40 14.4 1.6 -13.293
155 4 41.6 12.8 0 -13.2949
156 3 43.2 14.4 1.6 -11.2085
157 2 44.8 12.8 0 -9.78849
158 2 46.4 14.4 1.6 -9.78607
159 2 48 12.8 0 -9.76208
160 2 49.6 14.4 1.6 -9.84159
161 4 0 16 0 -13.282
162 3 1.6 17.6 1.6 -11.218
163 1 3.2 16 0 -11.722
164 2 4.8 17.6 1.6 -9.71464
165 1 6.4 16 0 -11.7596
166 3 8 17.6 1.6 -11.2346
167 4 9.6 16 0 -13.335
168 3 11.2 17.6 1.6 -11.2274
169 2 12.8 16 0 -9.8303
170 2 14.4 17.6 1.6 -9.86706
171 2 16 16 0 -9.84116
172 2 17.6 17.6 1.6 -9.84018
173 2 19.2 16 0 -9.82075
174 4 20.8 17.6 1.6 -13.2855
175 2 22.4 16 0 -9.82106
176 3 24 17.6 1.6 -11.1935
177 4 25.6 16 0 -13.2575
178 4 27.2 17.6 1.6 -13.2484
179 2 28.8 16 0 -9.81872
180 4 30.4 17.6 1.6 -13.2077
181 4 32 16 0 -13.2815
182 2 33.6 17.6 1.6 -9.76286
183 2 35.2 16 0 -9.81334
184 4 36.8 17.6 1.6 -13.2254
185 2 38.4 16 0 -9.70144
186 2 40 17.6 1.6 -9.79371
187 1 41.6 16 0 -11.757
188 3 43.2 17.6 1.6 -11.338
189 1 44.8 16 0 -11.7429
190 3 46.4 17.6 1.6 -11.1606
191 1 48 16 0 -11.7316
192 2 49.6 17.6 1.6 -9.80973
193 4 0 19.2 0 -13.3024
194 3 1.6 20.8 1.6 -11.2684
195 1 3.2 19.2 0 -11.7696
196 3 4.8 20.8 1.6 -11.1642
197 1 6.4 19.2 0 -11.8122
198 3 8 20.8 1.6 -11.2767
199 1 9.6 19.2 0 -11.8276
200 3 11.2 20.8 1.6 -11.1995
201 1 12.8 19.2 0 -11.7624
202 2 14.4 20.8 1.6 -9.7845
203 4 16 19.2 0 -13.2913
204 3 17.6 20.8 1.6 -11.2859
205 4 19.2 19.2 0 -13.3205
206 2 20.8 20.8 1.6 -9.89445
207 4 22.4 19.2 0 -13.2873
208 2 24 20.8 1.6 -9.84443
209 4 25.6 19.2 0 -13.2919
210 3 27.2 20.8 1.6 -11.3552
211 2 28.8 19.2 0 -9.81305
212 3 30.4 20.8 1.6 -11.2575
213 4 32 19.2 0 -13.3448
214 3 33.6 20.8 1.6 -11.3056
215 4 35.2 19.2 0 -13.3406
216 3 36.8 20.8 1.6 -11.2709
217 1 38.4 19.2 0 -11.7378
218 3 40 20.8 1.6 -11.2628
219 4 41.6 19.2 0 -13.2692
220 3 43.2 20.8 1.6 -11.3365
221 1 44.8 19.2 0 -11.8696
222 3 46.4 20.8 1.6 -11.2366
223 1 48 19.2 0 -11.7657
224 4 49.6 20.8 1.6 -13.2314
225 4 0 22.4 0 -13.3289
226 3 1.6 24 1.6 -11.3355
227 1 3.2 22.4 0 -11.8569
228 3 4.8 24 1.6 -11.3076
229 1 6.4 22.4 0 -11.8413
230 3 8 24 1.6 -11.3091
231 1 9.6 22.4 0 -11.8697
232 3 11.2 24 1.6 -11.3055
233 1 12.8 22.4 0 -11.796
234 3 14.4 24 1.6 -11.2732
235 1 16 22.4 0 -11.7846
236 3 17.6 24 1.6 -11.3084
237 1 19.2 22.4 0 -11.8311
238 3 20.8 24 1.6 -11.1897
239 4 22.4 22.4 0 -13.2908
240 4 24 24 1.6 -13.2054
241 1 25.6 22.4 0 -11.7699
242 3 27.2 24 1.6 -11.2597
243 4 28.8 22.4 0 -13.4189
244 2 30.4 24 1.6 -9.84105
245 1 32 22.4 0 -11.8708
246 3 33.6 24 1.6 -11.2318
247 4 35.2 22.4 0 -13.3833
248 3 36.8 24 1.6 -11.2381
249 1 38.4 22.4 0 -11.793
250 3 40 24 1.6 -11.2761
251 1 41.6 22.4 0 -11.8109
252 3 43.2 24 1.6 -11.2756
253 1 44.8 22.4 0 -11.8413
254 3 46.4 24 1.6 -11.2397
255 1 48 22.4 0 -11.7854
256 2 49.6 24 1.6 -9.78096
257 1 0 25.6 0 -11.8278
259 4 3.2 25.6 0 -13.3569
261 1 6.4 25.6 0 -11.8423
263 4 9.6 25.6 0 -13.3645
265 1 12.8 25.6 0 -11.8557
267 1 16 25.6 0 -11.8416
269 1 19.2 25.6 0 -11.8121
271 1 22.4 25.6 0 -11.7718
273 4 25.6 25.6 0 -13.275
275 4 28.8 25.6 0 -13.2879
277 4 32 25.6 0 -13.3098
279 1 35.2 25.6 0 -11.8415
281 1 38.4 25.6 0 -11.8413
283 1 41.6 25.6 0 -11.8557
285 1 44.8 25.6 0 -11.8415
287 1 48 25.6 0 -11.7841
258 3 1.6 27.2 1.6 -11.3047
289 1 0 28.8 0 -11.8257
260 3 4.8 27.2 1.6 -11.2686
291 1 3.2 28.8 0 -11.8093
262 3 8 27.2 1.6 -11.2733
293 1 6.4 28.8 0 -11.796
264 3 11.2 27.2 1.6 -11.3091
295 1 9.6 28.8 0 -11.8697
266 3 14.4 27.2 1.6 -11.2417
297 1 12.8 28.8 0 -11.8415
268 3 17.6 27.2 1.6 -11.2039
299 1 16 28.8 0 -11.8417
270 2 20.8 27.2 1.6 -9.7143
301 1 19.2 28.8 0 -11.8122
272 3 24 27.2 1.6 -11.1975
303 1 22.4 28.8 0 -11.8422
305 1 25.6 28.8 0 -11.8278
274 3 27.2 27.2 1.6 -11.2367
307 1 28.8 28.8 0 -11.7595
276 2 30.4 27.2 1.6 -9.75681
309 4 32 28.8 0 -13.3196
278 2 33.6 27.2 1.6 -9.83881
311 1 35.2 28.8 0 -11.8314
280 3 36.8 27.2 1.6 -11.2359
313 1 38.4 28.8 0 -11.7998
282 3 40 27.2 1.6 -11.2754
315 4 41.6 28.8 0 -13.3345
284 3 43.2 27.2 1.6 -11.2397
317 1 44.8 28.8 0 -11.8263
286 3 46.4 27.2 1.6 -11.2045
319 1 48 28.8 0 -11.7982
288 3 49.6 27.2 1.6 -11.1642
290 3 1.6 30.4 1.6 -11.3092
321 4 0 32 0 -13.336
292 3 4.8 30.4 1.6 -11.2686
323 1 3.2 32 0 -11.8305
294 3 8 30.4 1.6 -11.3057
325 4 6.4 32 0 -13.3097
296 3 11.2 30.4 1.6 -11.2761
327 1 9.6 32 0 -11.828
298 3 14.4 30.4 1.6 -11.2039
329 1 12.8 32 0 -11.8122
300 3 17.6 30.4 1.6 -11.2423
331 1 16 32 0 -11.7988
302 3 20.8 30.4 1.6 -11.2397
333 1 19.2 32 0 -11.8123
304 3 24 30.4 1.6 -11.2756
335 1 22.4 32 0 -11.8414
337 1 25.6 32 0 -11.8695
306 3 27.2 30.4 1.6 -11.2767
339 4 28.8 32 0 -13.3309
308 3 30.4 30.4 1.6 -11.2672
341 4 32 32 0 -13.3455
310 3 33.6 30.4 1.6 -11.294
343 4 35.2 32 0 -13.3515
312 2 36.8 30.4 1.6 -9.81325
345 1 38.4 32 0 -11.7519
314 2 40 30.4 1.6 -9.76407
347 2 41.6 32 0 -9.79878
316 2 43.2 30.4 1.6 -9.81587
349 4 44.8 32 0 -13.2983
318 2 46.4 30.4 1.6 -9.71861
351 1 48 32 0 -11.7539
320 3 49.6 30.4 1.6 -11.2013
322 3 1.6 33.6 1.6 -11.229
353 4 0 35.2 0 -13.3144
324 2 4.8 33.6 1.6 -9.83862
355 4 3.2 35.2 0 -13.3564
326 2 8 33.6 1.6 -9.77955
357 1 6.4 35.2 0 -11.8441
328 3 11.2 33.6 1.6 -11.2016
359 1 9.6 35.2 0 -11.8127
330 3 14.4 33.6 1.6 -11.2342
361 1 12.8 35.2 0 -11.7901
332 3 17.6 33.6 1.6 -11.1998
363 4 16 35.2 0 -13.2401
334 3 20.8 33.6 1.6 -11.2051
365 1 19.2 35.2 0 -11.7188
336 3 24 33.6 1.6 -11.274
367 1 22.4 35.2 0 -11.7453
369 4 25.6 35.2 0 -13.3508
338 3 27.2 33.6 1.6 -11.2976
371 4 28.8 35.2 0 -13.3124
340 2 30.4 33.6 1.6 -9.79112
373 2 32 35.2 0 -9.79101
342 4 33.6 33.6 1.6 -13.2469
375 2 35.2 35.2 0 -9.83419
344 2 36.8 33.6 1.6 -9.81912
377 2 38.4 35.2 0 -9.7809
346 4 40 33.6 1.6 -13.2576
379 2 41.6 35.2 0 -9.79459
348 4 43.2 33.6 1.6 -13.2774
381 4 44.8 35.2 0 -13.3409
350 2 46.4 33.6 1.6 -9.78903
383 1 48 35.2 0 -11.7882
352 2 49.6 33.6 1.6 -9.69359
354 3 1.6 36.8 1.6 -11.3032
385 4 0 38.4 0 -13.3534
356 3 4.8 36.8 1.6 -11.3082
387 1 3.2 38.4 0 -11.8244
358 3 8 36.8 1.6 -11.2691
389 4 6.4 38.4 0 -13.3068
360 3 11.2 36.8 1.6 -11.2944
391 4 9.6 38.4 0 -13.3792
362 2 14.4 36.8 1.6 -9.86878
393 2 12.8 38.4 0 -9.8376
364 4 17.6 36.8 1.6 -13.2507
395 2 16 38.4 0 -9.86473
366 2 20.8 36.8 1.6 -9.75716
397 2 19.2 38.4 0 -9.79282
368 2 24 36.8 1.6 -9.83853
399 2 22.4 38.4 0 -9.79247
401 2 25.6 38.4 0 -9.86642
370 2 27.2 36.8 1.6 -9.85613
403 2 28.8 38.4 0 -9.81384
372 4 30.4 36.8 1.6 -13.2641
405 3 32 38.4 0 -11.1158
374 1 33.6 36.8 1.6 -11.6759
407 3 35.2 38.4 0 -11.2338
376 4 36.8 36.8 1.6 -13.2676
409 2 38.4 38.4 0 -9.75273
378 1 40 36.8 1.6 -11.7042
411 4 41.6 38.4 0 -13.1908
380 2 43.2 36.8 1.6 -9.86429
413 2 44.8 38.4 0 -9.86489
382 3 46.4 36.8 1.6 -11.3064
415 2 48 38.4 0 -9.84359
384 4 49.6 36.8 1.6 -13.2446
386 3 1.6 40 1.6 -11.2324
417 4 0 41.6 0 -13.3246
388 3 4.8 40 1.6 -11.1984
419 1 3.2 41.6 0 -11.7662
390 4 8 40 1.6 -13.2455
421 4 6.4 41.6 0 -13.2976
392 2 11.2 40 1.6 -9.8708
423 2 9.6 41.6 0 -9.81176
394 4 14.4 40 1.6 -13.3464
425 4 12.8 41.6 0 -13.3037
396 4 17.6 40 1.6 -13.2362
427 2 16 41.6 0 -9.72926
398 1 20.8 40 1.6 -11.7669
429 2 19.2 41.6 0 -9.69081
400 4 24 40 1.6 -13.3158
431 2 22.4 41.6 0 -9.78733
433 2 25.6 41.6 0 -9.84445
402 4 27.2 40 1.6 -13.3167
435 2 28.8 41.6 0 -9.78986
404 4 30.4 40 1.6 -13.3023
437 2 32 41.6 0 -9.80865
406 1 33.6 40 1.6 -11.7383
439 3 35.2 41.6 0 -11.2736
408 1 36.8 40 1.6 -11.8304
441 3 38.4 41.6 0 -11.2665
410 4 40 40 1.6 -13.2902
443 2 41.6 41.6 0 -9.79573
412 2 43.2 40 1.6 -9.83434
445 4 44.8 41.6 0 -13.3042
414 2 46.4 40 1.6 -9.88234
447 2 48 41.6 0 -9.8342
416 4 49.6 40 1.6 -13.3067
418 3 1.6 43.2 1.6 -11.2449
449 4 0 44.8 0 -13.1647
420 2 4.8 43.2 1.6 -9.83645
451 2 3.2 44.8 0 -9.78408
422 4 8 43.2 1.6 -13.2902
453 3 6.4 44.8 0 -11.2278
424 2 11.2 43.2 1.6 -9.82798
455 2 9.6 44.8 0 -9.84331
426 4 14.4 43.2 1.6 -13.2672
457 2 12.8 44.8 0 -9.78318
428 1 17.6 43.2 1.6 -11.7976
459 2 16 44.8 0 -9.71429
430 1 20.8 43.2 1.6 -11.7801
461 3 19.2 44.8 0 -11.1245
432 4 24 43.2 1.6 -13.3058
463 2 22.4 44.8 0 -9.77465
465 3 25.6 44.8 0 -11.2707
434 1 27.2 43.2 1.6 -11.8038
467 3 28.8 44.8 0 -11.2737
436 1 30.4 43.2 1.6 -11.8158
469 3 32 44.8 0 -11.2355
438 1 33.6 43.2 1.6 -11.8416
471 3 35.2 44.8 0 -11.2738
440 4 36.8 43.2 1.6 -13.3609
473 2 38.4 44.8 0 -9.77712
442 4 40 43.2 1.6 -13.2886
475 2 41.6 44.8 0 -9.69053
444 1 43.2 43.2 1.6 -11.6929
477 2 44.8 44.8 0 -9.6988
446 4 46.4 43.2 1.6 -13.323
479 4 48 44.8 0 -13.2057
448 2 49.6 43.2 1.6 -9.85412
450 1 1.6 46.4 1.6 -11.7348
481 2 0 48 0 -9.71454
452 1 4.8 46.4 1.6 -11.7872
483 3 3.2 48 0 -11.1648
454 1 8 46.4 1.6 -11.7444
485 3 6.4 48 0 -11.2426
456 4 11.2 46.4 1.6 -13.327
487 3 9.6 48 0 -11.2359
458 1 14.4 46.4 1.6 -11.8136
489 3 12.8 48 0 -11.2734
460 1 17.6 46.4 1.6 -11.8122
491 3 16 48 0 -11.2036
462 1 20.8 46.4 1.6 -11.8121
493 3 19.2 48 0 -11.2758
464 1 24 46.4 1.6 -11.7984
495 3 22.4 48 0 -11.2378
497 3 25.6 48 0 -11.2381
466 1 27.2 46.4 1.6 -11.8121
499 3 28.8 48 0 -11.2359
468 1 30.4 46.4 1.6 -11.7807
501 2 32 48 0 -9.74939
470 1 33.6 46.4 1.6 -11.7985
503 3 35.2 48 0 -11.2013
472 1 36.8 46.4 1.6 -11.828
505 3 38.4 48 0 -11.1636
474 1 40 46.4 1.6 -11.7562
507 2 41.6 48 0 -9.71506
476 1 43.2 46.4 1.6 -11.7216
509 3 44.8 48 0 -11.1651
478 1 46.4 46.4 1.6 -11.7828
511 3 48 48 0 -11.1635
480 4 49.6 46.4 1.6 -13.2463
482 1 1.6 49.6 1.6 -11.8123
484 1 4.8 49.6 1.6 -11.8415
486 1 8 49.6 1.6 -11.8279
488 1 11.2 49.6 1.6 -11.8437
490 1 14.4 49.6 1.6 -11.8415
492 1 17.6 49.6 1.6 -11.8414
494 1 20.8 49.6 1.6 -11.8698
496 1 24 49.6 1.6 -11.8121
498 1 27.2 49.6 1.6 -11.826
500 1 30.4 49.6 1.6 -11.8137
502 4 33.6 49.6 1.6 -13.3308
504 1 36.8 49.6 1.6 -11.7835
506 4 40 49.6 1.6 -13.2539
508 1 43.2 49.6 1.6 -11.7989
510 1 46.4 49.6 1.6 -11.8415
512 1 49.6 49.6 1.6 -11.8284
513 3 0 0 3.2 -11.242
514 1 1.6 1.6 4.8 -11.8558
515 3 3.2 0 3.2 -11.2759
516 4 4.8 1.6 4.8 -13.3152
517 3 6.4 0 3.2 -11.2379
518 1 8 1.6 4.8 -11.8173
519 3 9.6 0 3.2 -11.2729
520 1 11.2 1.6 4.8 -11.8697
521 3 12.8 0 3.2 -11.2756
522 1 14.4 1.6 4.8 -11.8415
523 3 16 0 3.2 -11.2414
524 1 17.6 1.6 4.8 -11.8415
525 3 19.2 0 3.2 -11.2756
526 1 20.8 1.6 4.8 -11.8422
527 3 22.4 0 3.2 -11.2767
528 1 24 1.6 4.8 -11.8018
529 3 25.6 0 3.2 -11.1636
530 1 27.2 1.6 4.8 -11.828
531 3 28.8 0 3.2 -11.2423
532 1 30.4 1.6 4.8 -11.8411
533 3 32 0 3.2 -11.2702
534 1 33.6 1.6 4.8 -11.8577
535 2 35.2 0 3.2 -9.80233
536 1 36.8 1.6 4.8 -11.7505
537 2 38.4 0 3.2 -9.68357
538 1 40 1.6 4.8 -11.753
539 3 41.6 0 3.2 -11.1618
540 1 43.2 1.6 4.8 -11.7685
541 3 44.8 0 3.2 -11.24
542 4 46.4 1.6 4.8 -13.3112
543 3 48 0 3.2 -11.2756
544 1 49.6 1.6 4.8 -11.8556
545 3 0 3.2 3.2 -11.2753
546 1 1.6 4.8 4.8 -11.8413
547 3 3.2 3.2 3.2 -11.2394
548 1 4.8 4.8 4.8 -11.7964
549 2 6.4 3.2 3.2 -9.74088
550 1 8 4.8 4.8 -11.7395
551 3 9.6 3.2 3.2 -11.1645
552 1 11.2 4.8 4.8 -11.7983
553 3 12.8 3.2 3.2 -11.2417
554 1 14.4 4.8 4.8 -11.8282
555 3 16 3.2 3.2 -11.242
556 1 17.6 4.8 4.8 -11.8122
557 3 19.2 3.2 3.2 -11.2397
558 1 20.8 4.8 4.8 -11.8121
559 3 22.4 3.2 3.2 -11.2378
560 1 24 4.8 4.8 -11.8121
561 3 25.6 3.2 3.2 -11.2423
562 1 27.2 4.8 4.8 -11.7961
563 3 28.8 3.2 3.2 -11.2039
564 1 30.4 4.8 4.8 -11.7502
565 3 32 3.2 3.2 -11.2384
566 1 33.6 4.8 4.8 -11.7693
567 3 35.2 3.2 3.2 -11.2736
568 1 36.8 4.8 4.8 -11.8414
569 3 38.4 3.2 3.2 -11.1994
570 1 40 4.8 4.8 -11.8122
571 2 41.6 3.2 3.2 -9.70694
572 1 43.2 4.8 4.8 -11.7508
573 2 44.8 3.2 3.2 -9.71232
574 1 46.4 4.8 4.8 -11.8137
575 3 48 3.2 3.2 -11.2724
576 1 49.6 4.8 4.8 -11.87
577 3 0 6.4 3.2 -11.2381
578 1 1.6 8 4.8 -11.7847
579 3 3.2 6.4 3.2 -11.1648
580 1 4.8 8 4.8 -11.7802
581 2 6.4 6.4 3.2 -9.71964
582 4 8 8 4.8 -13.2664
583 2 9.6 6.4 3.2 -9.75442
584 4 11.2 8 4.8 -13.3224
585 3 12.8 6.4 3.2 -11.2712
586 4 14.4 8 4.8 -13.3339
587 3 16 6.4 3.2 -11.2397
588 1 17.6 8 4.8 -11.8571
589 3 19.2 6.4 3.2 -11.2039
590 1 20.8 8 4.8 -11.8693
591 3 22.4 6.4 3.2 -11.242
592 1 24 8 4.8 -11.8551
593 3 25.6 6.4 3.2 -11.2039
594 1 27.2 8 4.8 -11.7516
595 2 28.8 6.4 3.2 -9.64529
596 1 30.4 8 4.8 -11.664
597 2 32 6.4 3.2 -9.74442
598 4 33.6 8 4.8 -13.3022
599 3 35.2 6.4 3.2 -11.2607
600 4 36.8 8 4.8 -13.293
601 3 38.4 6.4 3.2 -11.2697
602 1 40 8 4.8 -11.8155
603 3 41.6 6.4 3.2 -11.2042
604 1 43.2 8 4.8 -11.8555
605 3 44.8 6.4 3.2 -11.2039
606 1 46.4 8 4.8 -11.8275
607 3 48 6.4 3.2 -11.2764
608 1 49.6 8 4.8 -11.8041
609 2 0 9.6 3.2 -9.80953
610 4 1.6 11.2 4.8 -13.2975
611 2 3.2 9.6 3.2 -9.75187
612 1 4.8 11.2 4.8 -11.7627
613 2 6.4 9.6 3.2 -9.72945
614 1 8 11.2 4.8 -11.7172
615 2 9.6 9.6 3.2 -9.79265
616 4 11.2 11.2 4.8 -13.2862
617 2 12.8 9.6 3.2 -9.81669
618 1 14.4 11.2 4.8 -11.7672
619 3 16 9.6 3.2 -11.237
620 4 17.6 11.2 4.8 -13.302
621 3 19.2 9.6 3.2 -11.3066
622 4 20.8 11.2 4.8 -13.3178
623 3 22.4 9.6 3.2 -11.3061
624 1 24 11.2 4.8 -11.7995
625 3 25.6 9.6 3.2 -11.2716
626 4 27.2 11.2 4.8 -13.1967
627 2 28.8 9.6 3.2 -9.69156
628 1 30.4 11.2 4.8 -11.6607
629 3 32 9.6 3.2 -11.1539
630 2 33.6 11.2 4.8 -9.79974
631 4 35.2 9.6 3.2 -13.2846
632 4 36.8 11.2 4.8 -13.28
633 2 38.4 9.6 3.2 -9.79136
634 4 40 11.2 4.8 -13.3485
635 3 41.6 9.6 3.2 -11.302
636 4 43.2 11.2 4.8 -13.352
637 3 44.8 9.6 3.2 -11.274
638 1 46.4 11.2 4.8 -11.7544
639 3 48 9.6 3.2 -11.1963
640 2 49.6 11.2 4.8 -9.7912
641 2 0 12.8 3.2 -9.91049
642 4 1.6 14.4 4.8 -13.3671
643 3 3.2 12.8 3.2 -11.2677
644 2 4.8 14.4 4.8 -9.79904
645 4 6.4 12.8 3.2 -13.292
646 4 8 14.4 4.8 -13.2741
647 2 9.6 12.8 3.2 -9.81705
648 2 11.2 14.4 4.8 -9.80996
649 2 12.8 12.8 3.2 -9.84361
650 2 14.4 14.4 4.8 -9.84298
651 4 16 12.8 3.2 -13.2504
652 2 17.6 14.4 4.8 -9.78105
653 2 19.2 12.8 3.2 -9.76505
654 1 20.8 14.4 4.8 -11.6894
655 2 22.4 12.8 3.2 -9.72598
656 1 24 14.4 4.8 -11.6502
657 2 25.6 12.8 3.2 -9.76364
658 2 27.2 14.4 4.8 -9.76765
659 4 28.8 12.8 3.2 -13.1694
660 2 30.4 14.4 4.8 -9.76487
661 2 32 12.8 3.2 -9.81331
662 2 33.6 14.4 4.8 -9.8912
663 2 35.2 12.8 3.2 -9.78949
664 2 36.8 14.4 4.8 -9.88548
665 2 38.4 12.8 3.2 -9.83949
666 3 40 14.4 4.8 -11.2885
667 2 41.6 12.8 3.2 -9.90261
668 2 43.2 14.4 4.8 -9.88478
669 2 44.8 12.8 3.2 -9.85827
670 2 46.4 14.4 4.8 -9.73214
671 2 48 12.8 3.2 -9.81338
672 2 49.6 14.4 4.8 -9.86271
673 2 0 16 3.2 -9.8621
674 4 1.6 17.6 4.8 -13.2882
675 4 3.2 16 3.2 -13.299
676 2 4.8 17.6 4.8 -9.72461
677 1 6.4 16 3.2 -11.7214
678 2 8 17.6 4.8 -9.7909
679 4 9.6 16 3.2 -13.2995
680 2 11.2 17.6 4.8 -9.79399
681 4 12.8 16 3.2 -13.3536
682 3 14.4 17.6 4.8 -11.2128
683 4 16 16 3.2 -13.3171
684 4 17.6 17.6 4.8 -13.3483
685 2 19.2 16 3.2 -9.79205
686 4 20.8 17.6 4.8 -13.2822
687 2 22.4 16 3.2 -9.75354
688 2 24 17.6 4.8 -9.81569
689 4 25.6 16 3.2 -13.2577
690 2 27.2 17.6 4.8 -9.78793
691 4 28.8 16 3.2 -13.2016
692 3 30.4 17.6 4.8 -11.0808
693 1 32 16 3.2 -11.7195
694 3 33.6 17.6 4.8 -11.2377
695 4 35.2 16 3.2 -13.2659
696 3 36.8 17.6 4.8 -11.2872
697 4 38.4 16 3.2 -13.3051
698 2 40 17.6 4.8 -9.89358
699 4 41.6 16 3.2 -13.3271
700 3 43.2 17.6 4.8 -11.1934
701 1 44.8 16 3.2 -11.7865
702 2 46.4 17.6 4.8 -9.74132
703 1 48 16 3.2 -11.7333
704 3 49.6 17.6 4.8 -11.1865
705 4 0 19.2 3.2 -13.329
706 3 1.6 20.8 4.8 -11.1928
707 1 3.2 19.2 3.2 -11.7475
708 2 4.8 20.8 4.8 -9.71452
709 1 6.4 19.2 3.2 -11.7209
710 3 8 20.8 4.8 -11.1928
711 1 9.6 19.2 3.2 -11.7911
712 4 11.2 20.8 4.8 -13.1999
713 1 12.8 19.2 3.2 -11.7294
714 2 14.4 20.8 4.8 -9.81815
715 4 16 19.2 3.2 -13.3187
716 2 17.6 20.8 4.8 -9.91649
717 2 19.2 19.2 3.2 -9.84812
718 2 20.8 20.8 4.8 -9.86444
719 4 22.4 19.2 3.2 -13.3728
720 2 24 20.8 4.8 -9.89496
721 4 25.6 19.2 3.2 -13.3187
722 3 27.2 20.8 4.8 -11.2543
723 1 28.8 19.2 3.2 -11.7451
724 2 30.4 20.8 4.8 -9.74731
725 1 32 19.2 3.2 -11.7385
726 3 33.6 20.8 4.8 -11.1235
727 1 35.2 19.2 3.2 -11.8015
728 3 36.8 20.8 4.8 -11.271
729 4 38.4 19.2 3.2 -13.3234
730 3 40 20.8 4.8 -11.3319
731 4 41.6 19.2 3.2 -13.3975
732 2 43.2 20.8 4.8 -9.83433
733 4 44.8 19.2 3.2 -13.3349
734 3 46.4 20.8 4.8 -11.2363
735 1 48 19.2 3.2 -11.7685
736 3 49.6 20.8 4.8 -11.2728
737 4 0 22.4 3.2 -13.3611
738 3 1.6 24 4.8 -11.2741
739 1 3.2 22.4 3.2 -11.8393
740 3 4.8 24 4.8 -11.2019
741 1 6.4 22.4 3.2 -11.8259
742 3 8 24 4.8 -11.2354
743 4 9.6 22.4 3.2 -13.3358
744 2 11.2 24 4.8 -9.75212
745 4 12.8 22.4 3.2 -13.268
746 3 14.4 24 4.8 -11.2695
747 4 16 22.4 3.2 -13.3785
748 3 17.6 24 4.8 -11.3013
749 4 19.2 22.4 3.2 -13.4062
750 2 20.8 24 4.8 -9.81358
751 2 22.4 22.4 3.2 -9.81213
752 2 24 24 4.8 -9.79233
753 4 25.6 22.4 3.2 -13.3164
754 2 27.2 24 4.8 -9.81394
755 4 28.8 22.4 3.2 -13.3188
756 2 30.4 24 4.8 -9.75882
757 1 32 22.4 3.2 -11.7596
758 2 33.6 24 4.8 -9.74775
759 1 35.2 22.4 3.2 -11.7939
760 2 36.8 24 4.8 -9.70671
761 1 38.4 22.4 3.2 -11.8393
762 3 40 24 4.8 -11.2697
763 4 41.6 22.4 3.2 -13.3834
764 3 43.2 24 4.8 -11.305
765 1 44.8 22.4 3.2 -11.8575
766 3 46.4 24 4.8 -11.3395
767 4 48 22.4 3.2 -13.3076
768 3 49.6 24 4.8 -11.3055
769 1 0 25.6 3.2 -11.8131
771 4 3.2 25.6 3.2 -13.3542
773 1 6.4 25.6 3.2 -11.796
775 1 9.6 25.6 3.2 -11.8285
777 1 12.8 25.6 3.2 -11.8278
779 1 16 25.6 3.2 -11.8555
781 1 19.2 25.6 3.2 -11.7284
783 1 22.4 25.6 3.2 -11.7002
785 1 25.6 25.6 3.2 -11.7719
787 1 28.8 25.6 3.2 -11.7743
789 4 32 25.6 3.2 -13.2721
791 1 35.2 25.6 3.2 -11.7845
793 1 38.4 25.6 3.2 -11.8259
795 1 41.6 25.6 3.2 -11.8554
797 1 44.8 25.6 3.2 -11.8555
799 1 48 25.6 3.2 -11.8416
770 2 1.6 27.2 4.8 -9.7451
801 1 0 28.8 3.2 -11.828
772 2 4.8 27.2 4.8 -9.74751
803 4 3.2 28.8 3.2 -13.3355
774 2 8 27.2 4.8 -9.71117
805 1 6.4 28.8 3.2 -11.8251
776 3 11.2 27.2 4.8 -11.235
807 4 9.6 28.8 3.2 -13.3389
778 3 14.4 27.2 4.8 -11.2397
809 1 12.8 28.8 3.2 -11.8418
780 3 17.6 27.2 4.8 -11.1645
811 1 16 28.8 3.2 -11.8122
782 4 20.8 27.2 4.8 -13.1078
813 1 19.2 28.8 3.2 -11.7667
784 3 24 27.2 4.8 -11.2659
815 4 22.4 28.8 3.2 -13.2812
817 1 25.6 28.8 3.2 -11.8696
786 3 27.2 27.2 4.8 -11.2367
819 1 28.8 28.8 3.2 -11.8116
788 3 30.4 27.2 4.8 -11.2367
821 1 32 28.8 3.2 -11.8437
790 3 33.6 27.2 4.8 -11.3007
823 4 35.2 28.8 3.2 -13.354
792 3 36.8 27.2 4.8 -11.2307
825 4 38.4 28.8 3.2 -13.3025
794 3 40 27.2 4.8 -11.2403
827 1 41.6 28.8 3.2 -11.804
796 3 43.2 27.2 4.8 -11.2764
829 1 44.8 28.8 3.2 -11.7701
798 3 46.4 27.2 4.8 -11.2342
831 1 48 28.8 3.2 -11.7807
800 3 49.6 27.2 4.8 -11.2387
802 3 1.6 30.4 4.8 -11.2368
833 1 0 32 3.2 -11.7832
804 3 4.8 30.4 4.8 -11.2744
835 1 3.2 32 3.2 -11.8123
806 3 8 30.4 4.8 -11.1976
837 4 6.4 32 3.2 -13.3336
808 3 11.2 30.4 4.8 -11.2322
839 1 9.6 32 3.2 -11.7802
810 2 14.4 30.4 4.8 -9.77968
841 1 12.8 32 3.2 -11.787
812 3 17.6 30.4 4.8 -11.2402
843 1 16 32 3.2 -11.8136
814 3 20.8 30.4 4.8 -11.202
845 1 19.2 32 3.2 -11.8414
816 3 24 30.4 4.8 -11.2744
847 1 22.4 32 3.2 -11.8557
849 1 25.6 32 3.2 -11.8274
818 3 27.2 30.4 4.8 -11.2016
851 1 28.8 32 3.2 -11.7871
820 3 30.4 30.4 4.8 -11.2359
853 4 32 32 3.2 -13.2933
822 3 33.6 30.4 4.8 -11.3331
855 4 35.2 32 3.2 -13.2871
824 2 36.8 30.4 4.8 -9.78361
857 4 38.4 32 3.2 -13.2219
826 2 40 30.4 4.8 -9.75235
859 4 41.6 32 3.2 -13.3001
828 3 43.2 30.4 4.8 -11.1993
861 4 44.8 32 3.2 -13.269
830 2 46.4 30.4 4.8 -9.74962
863 1 48 32 3.2 -11.7444
832 3 49.6 30.4 4.8 -11.2364
834 2 1.6 33.6 4.8 -9.77528
865 1 0 35.2 3.2 -11.712
836 3 4.8 33.6 4.8 -11.2635
867 1 3.2 35.2 3.2 -11.8302
838 2 8 33.6 4.8 -9.80832
869 4 6.4 35.2 3.2 -13.328
840 2 11.2 33.6 4.8 -9.78377
871 1 9.6 35.2 3.2 -11.7867
842 2 14.4 33.6 4.8 -9.84236
873 4 12.8 35.2 3.2 -13.2994
844 3 17.6 33.6 4.8 -11.2344
875 4 16 35.2 3.2 -13.2972
846 3 20.8 33.6 4.8 -11.2051
877 1 19.2 35.2 3.2 -11.7138
848 3 24 33.6 4.8 -11.2352
879 1 22.4 35.2 3.2 -11.7746
881 4 25.6 35.2 3.2 -13.3296
850 2 27.2 33.6 4.8 -9.79025
883 4 28.8 35.2 3.2 -13.2727
852 4 30.4 33.6 4.8 -13.2732
885 4 32 35.2 3.2 -13.1451
854 2 33.6 33.6 4.8 -9.76681
887 4 35.2 35.2 3.2 -13.213
856 2 36.8 33.6 4.8 -9.81827
889 2 38.4 35.2 3.2 -9.84288
858 2 40 33.6 4.8 -9.84182
891 2 41.6 35.2 3.2 -9.83293
860 3 43.2 33.6 4.8 -11.2888
893 4 44.8 35.2 3.2 -13.3713
862 3 46.4 33.6 4.8 -11.2918
895 4 48 35.2 3.2 -13.2299
864 2 49.6 33.6 4.8 -9.77957
866 3 1.6 36.8 4.8 -11.2642
897 4 0 38.4 3.2 -13.2646
868 3 4.8 36.8 4.8 -11.3968
899 1 3.2 38.4 3.2 -11.843
870 3 8 36.8 4.8 -11.327
901 1 6.4 38.4 3.2 -11.8288
872 2 11.2 36.8 4.8 -9.87126
903 4 9.6 38.4 3.2 -13.291
874 2 14.4 36.8 4.8 -9.81903
905 4 12.8 38.4 3.2 -13.3425
876 4 17.6 36.8 4.8 -13.2261
907 2 16 38.4 3.2 -9.81928
878 2 20.8 36.8 4.8 -9.75776
909 2 19.2 38.4 3.2 -9.79383
880 2 24 36.8 4.8 -9.81854
911 2 22.4 38.4 3.2 -9.84105
913 2 25.6 38.4 3.2 -9.84315
882 1 27.2 36.8 4.8 -11.7211
915 3 28.8 38.4 3.2 -11.2095
884 2 30.4 36.8 4.8 -9.7922
917 4 32 38.4 3.2 -13.2135
886 2 33.6 36.8 4.8 -9.73438
919 2 35.2 38.4 3.2 -9.72773
888 4 36.8 36.8 4.8 -13.3211
921 3 38.4 38.4 3.2 -11.2612
890 4 40 36.8 4.8 -13.3466
923 2 41.6 38.4 3.2 -9.8401
892 2 43.2 36.8 4.8 -9.86919
925 4 44.8 38.4 3.2 -13.3642
894 2 46.4 36.8 4.8 -9.8709
927 4 48 38.4 3.2 -13.2843
896 2 49.6 36.8 4.8 -9.78862
898 2 1.6 40 4.8 -9.81204
929 4 0 41.6 3.2 -13.3187
900 3 4.8 40 4.8 -11.2284
931 1 3.2 41.6 3.2 -11.7579
902 2 8 40 4.8 -9.86969
933 4 6.4 41.6 3.2 -13.2917
904 2 11.2 40 4.8 -9.81562
935 4 9.6 41.6 3.2 -13.3124
906 4 14.4 40 4.8 -13.2999
937 2 12.8 41.6 3.2 -9.84339
908 1 17.6 40 4.8 -11.7634
939 3 16 41.6 3.2 -11.3011
910 4 20.8 40 4.8 -13.3287
941 3 19.2 41.6 3.2 -11.2312
912 4 24 40 4.8 -13.2923
943 3 22.4 41.6 3.2 -11.2972
945 2 25.6 41.6 3.2 -9.78411
914 1 27.2 40 4.8 -11.6868
947 3 28.8 41.6 3.2 -11.1933
916 4 30.4 40 4.8 -13.2384
949 3 32 41.6 3.2 -11.1604
918 1 33.6 40 4.8 -11.6853
951 3 35.2 41.6 3.2 -11.2392
920 1 36.8 40 4.8 -11.8006
953 3 38.4 41.6 3.2 -11.3002
922 4 40 40 4.8 -13.3544
955 2 41.6 41.6 3.2 -9.8135
924 2 43.2 40 4.8 -9.84071
957 2 44.8 41.6 3.2 -9.79243
926 4 46.4 40 4.8 -13.278
959 2 48 41.6 3.2 -9.8633
928 2 49.6 40 4.8 -9.82014
930 4 1.6 43.2 4.8 -13.2515
961 2 0 44.8 3.2 -9.83751
932 2 4.8 43.2 4.8 -9.81682
963 2 3.2 44.8 3.2 -9.7856
934 3 8 43.2 4.8 -11.2249
965 2 6.4 44.8 3.2 -9.81282
936 4 11.2 43.2 4.8 -13.3649
967 4 9.6 44.8 3.2 -13.2798
938 1 14.4 43.2 4.8 -11.8434
969 3 12.8 44.8 3.2 -11.2955
940 4 17.6 43.2 4.8 -13.3608
971 3 16 44.8 3.2 -11.2736
942 4 20.8 43.2 4.8 -13.3608
973 3 19.2 44.8 3.2 -11.3081
944 1 24 43.2 4.8 -11.8417
975 3 22.4 44.8 3.2 -11.2741
977 3 25.6 44.8 3.2 -11.2022
946 1 27.2 43.2 4.8 -11.7054
979 3 28.8 44.8 3.2 -11.2051
948 1 30.4 43.2 4.8 -11.7545
981 3 32 44.8 3.2 -11.2048
950 1 33.6 43.2 4.8 -11.8121
983 3 35.2 44.8 3.2 -11.2759
952 1 36.8 43.2 4.8 -11.8257
985 3 38.4 44.8 3.2 -11.2359
954 1 40 43.2 4.8 -11.7724
987 2 41.6 44.8 3.2 -9.71451
956 1 43.2 43.2 4.8 -11.7046
989 3 44.8 44.8 3.2 -11.158
958 4 46.4 43.2 4.8 -13.2856
991 3 48 44.8 3.2 -11.2882
960 2 49.6 43.2 4.8 -9.84946
962 1 1.6 46.4 4.8 -11.7273
993 3 0 48 3.2 -11.1631
964 1 4.8 46.4 4.8 -11.7037
995 3 3.2 48 3.2 -11.2057
966 4 8 46.4 4.8 -13.2683
997 3 6.4 48 3.2 -11.1609
968 4 11.2 46.4 4.8 -13.3514
999 2 9.6 48 3.2 -9.83886
970 1 14.4 46.4 4.8 -11.8552
1001 3 12.8 48 3.2 -11.3058
972 1 17.6 46.4 4.8 -11.8696
1003 3 16 48 3.2 -11.2417
974 1 20.8 46.4 4.8 -11.7931
1005 3 19.2 48 3.2 -11.242
976 1 24 46.4 4.8 -11.7705
1007 3 22.4 48 3.2 -11.1226
1009 2 25.6 48 3.2 -9.73533
978 1 27.2 46.4 4.8 -11.798
1011 3 28.8 48 3.2 -11.1658
980 1 30.4 46.4 4.8 -11.77
1013 2 32 48 3.2 -9.74735
982 1 33.6 46.4 4.8 -11.7985
1015 3 35.2 48 3.2 -11.2374
984 1 36.8 46.4 4.8 -11.8414
1017 3 38.4 48 3.2 -11.2408
986 1 40 46.4 4.8 -11.8257
1019 3 41.6 48 3.2 -11.2007
988 1 43.2 46.4 4.8 -11.7996
1021 3 44.8 48 3.2 -11.2426
990 1 46.4 46.4 4.8 -11.8152
1023 3 48 48 3.2 -11.277
992 1 49.6 46.4 4.8 -11.7905
994 1 1.6 49.6 4.8 -11.8122
996 1 4.8 49.6 4.8 -11.7811
998 4 8 49.6 4.8 -13.3032
1000 4 11.2 49.6 4.8 -13.3834
1002 1 14.4 49.6 4.8 -11.8557
1004 1 17.6 49.6 4.8 -11.8415
1006 1 20.8 49.6 4.8 -11.7977
1008 1 24 49.6 4.8 -11.7475
1010 1 27.2 49.6 4.8 -11.7997
1012 1 30.4 49.6 4.8 -11.7983
1014 4 33.6 49.6 4.8 -13.3306
1016 1 36.8 49.6 4.8 -11.7657
1018 1 40 49.6 4.8 -11.7965
1020 1 43.2 49.6 4.8 -11.8414
1022 1 46.4 49.6 4.8 -11.8557
1024 1 49.6 49.6 4.8 -11.8121
1025 3 0 0 6.4 -11.2033
1026 1 1.6 1.6 8 -11.8554
1027 3 3.2 0 6.4 -11.24
1028 1 4.8 1.6 8 -11.8282
1029 2 6.4 0 6.4 -9.74733
1030 1 8 1.6 8 -11.8258
1031 3 9.6 0 6.4 -11.304
1032 4 11.2 1.6 8 -13.3639
1033 3 12.8 0 6.4 -11.3091
1034 1 14.4 1.6 8 -11.8259
1035 3 16 0 6.4 -11.2042
1036 1 17.6 1.6 8 -11.7545
1037 3 19.2 0 6.4 -11.2384
1038 4 20.8 1.6 8 -13.3016
1039 3 22.4 0 6.4 -11.1897
1040 4 24 1.6 8 -13.3284
1041 2 25.6 0 6.4 -9.83511
1042 4 27.2 1.6 8 -13.3266
1043 3 28.8 0 6.4 -11.2008
1044 1 30.4 1.6 8 -11.79
1045 3 32 0 6.4 -11.2697
1046 4 33.6 1.6 8 -13.355
1047 3 35.2 0 6.4 -11.2649
1048 1 36.8 1.6 8 -11.8259
1049 2 38.4 0 6.4 -9.70694
1050 1 40 1.6 8 -11.7525
1051 3 41.6 0 6.4 -11.1651
1052 1 43.2 1.6 8 -11.7851
1053 3 44.8 0 6.4 -11.24
1054 1 46.4 1.6 8 -11.8572
1055 3 48 0 6.4 -11.2761
1056 1 49.6 1.6 8 -11.8694
1057 3 0 3.2 6.4 -11.2756
1058 1 1.6 4.8 8 -11.8137
1059 3 3.2 3.2 6.4 -11.2761
1060 1 4.8 4.8 8 -11.7985
1061 3 6.4 3.2 6.4 -11.2023
1062 1 8 4.8 8 -11.8018
1063 3 9.6 3.2 6.4 -11.2384
1064 1 11.2 4.8 8 -11.8395
1065 3 12.8 3.2 6.4 -11.2758
1066 1 14.4 4.8 8 -11.7459
1067 3 16 3.2 6.4 -11.2045
1068 1 17.6 4.8 8 -11.7271
1069 3 19.2 3.2 6.4 -11.2026
1070 1 20.8 4.8 8 -11.7761
1071 2 22.4 3.2 6.4 -9.80022
1072 1 24 4.8 8 -11.7915
1073 3 25.6 3.2 6.4 -11.2324
1074 4 27.2 4.8 8 -13.3802
1075 3 28.8 3.2 6.4 -11.3043
1076 2 30.4 4.8 8 -9.79052
1077 3 32 3.2 6.4 -11.274
1078 1 33.6 4.8 8 -11.7776
1079 3 35.2 3.2 6.4 -11.239
1080 1 36.8 4.8 8 -11.8139
1081 3 38.4 3.2 6.4 -11.2045
1082 1 40 4.8 8 -11.828
1083 3 41.6 3.2 6.4 -11.1245
1084 1 43.2 4.8 8 -11.7916
1085 2 44.8 3.2 6.4 -9.77528
1086 4 46.4 4.8 8 -13.354
1087 3 48 3.2 6.4 -11.3052
1088 4 49.6 4.8 8 -13.3555
1089 3 0 6.4 6.4 -11.2709
1090 4 1.6 8 8 -13.2985
1091 3 3.2 6.4 6.4 -11.2737
1092 4 4.8 8 8 -13.3263
1093 3 6.4 6.4 6.4 -11.2324
1094 4 8 8 8 -13.3279
1095 2 9.6 6.4 6.4 -9.77979
1096 1 11.2 8 8 -11.8032
1097 3 12.8 6.4 6.4 -11.2363
1098 1 14.4 8 8 -11.7608
1099 2 16 6.4 6.4 -9.74745
1100 4 17.6 8 8 -13.2353
1101 3 19.2 6.4 6.4 -11.2367
1102 4 20.8 8 8 -13.3224