ITEM: TIMESTEP
0
ITEM: NUMBER OF ATOMS
8192
ITEM: BOX BOUNDS pp pp pp
0.0000000000000000e+00 5.1200000000000003e+01
0.0000000000000000e+00 5.1200000000000003e+01
0.0000000000000000e+00 5.1200000000000003e+01
ITEM: ATOMS id type x y z c_eng
1 3 0 0 0 -11.2381
2 1 1.6 1.6 1.6 -11.8556
3 3 3.2 0 0 -11.2702
4 1 4.8 1.6 1.6 -11.8556
5 3 6.4 0 0 -11.2729
6 1 8 1.6 1.6 -11.8557
7 3 9.6 0 0 -11.2759
8 1 11.2 1.6 1.6 -11.8414
9 3 12.8 0 0 -11.2753
10 1 14.4 1.6 1.6 -11.8424
11 3 16 0 0 -11.3096
12 1 17.6 1.6 1.6 -11.7284
13 3 19.2 0 0 -11.1576
14 1 20.8 1.6 1.6 -11.7812
15 3 22.4 0 0 -11.3076
16 4 24 1.6 1.6 -13.3845
17 3 25.6 0 0 -11.3068
18 1 27.2 1.6 1.6 -11.8556
19 3 28.8 0 0 -11.2756
20 1 30.4 1.6 1.6 -11.8414
21 3 32 0 0 -11.2756
22 1 33.6 1.6 1.6 -11.8557
23 3 35.2 0 0 -11.2414
24 1 36.8 1.6 1.6 -11.812
25 3 38.4 0 0 -11.2756
26 1 40 1.6 1.6 -11.8397
27 3 41.6 0 0 -11.3086
28 4 43.2 1.6 1.6 -13.3645
29 3 44.8 0 0 -11.2756
30 1 46.4 1.6 1.6 -11.8556
31 3 48 0 0 -11.242
32 1 49.6 1.6 1.6 -11.8556
33 3 0 3.2 0 -11.3079
34 1 1.6 4.8 1.6 -11.8697
35 3 3.2 3.2 0 -11.3068
36 1 4.8 4.8 1.6 -11.8415
37 3 6.4 3.2 0 -11.2753
38 1 8 4.8 1.6 -11.8417
39 3 9.6 3.2 0 -11.2414
40 1 11.2 4.8 1.6 -11.8558
41 3 12.8 3.2 0 -11.2756
42 4 14.4 4.8 1.6 -13.3117
43 3 16 3.2 0 -11.1594
44 1 17.6 4.8 1.6 -11.7387
45 4 19.2 3.2 0 -13.1459
46 1 20.8 4.8 1.6 -11.8112
47 3 22.4 3.2 0 -11.2349
48 1 24 4.8 1.6 -11.8555
49 3 25.6 3.2 0 -11.3079
50 1 27.2 4.8 1.6 -11.8555
51 3 28.8 3.2 0 -11.2753
52 1 30.4 4.8 1.6 -11.8147
53 3 32 3.2 0 -11.2759
54 4 33.6 4.8 1.6 -13.3353
55 3 35.2 3.2 0 -11.2761
56 1 36.8 4.8 1.6 -11.8024
57 3 38.4 3.2 0 -11.2381
58 1 40 4.8 1.6 -11.7524
59 3 41.6 3.2 0 -11.2716
60 1 43.2 4.8 1.6 -11.826
61 3 44.8 3.2 0 -11.2756
62 1 46.4 4.8 1.6 -11.8697
63 3 48 3.2 0 -11.2753
64 4 49.6 4.8 1.6 -13.3639
65 3 0 6.4 0 -11.3417
66 4 1.6 8 1.6 -13.3119
67 3 3.2 6.4 0 -11.2017
68 1 4.8 8 1.6 -11.7836
69 3 6.4 6.4 0 -11.2039
70 1 8 8 1.6 -11.8122
71 3 9.6 6.4 0 -11.242
72 1 11.2 8 1.6 -11.7808
73 3 12.8 6.4 0 -11.2381
74 1 14.4 8 1.6 -11.7349
75 3 16 6.4 0 -11.2734
76 1 17.6 8 1.6 -11.8093
77 3 19.2 6.4 0 -11.2358
78 1 20.8 8 1.6 -11.8553
79 3 22.4 6.4 0 -11.2761
80 1 24 8 1.6 -11.8121
81 3 25.6 6.4 0 -11.2387
82 1 27.2 8 1.6 -11.7278
83 3 28.8 6.4 0 -11.2371
84 1 30.4 8 1.6 -11.7489
85 3 32 6.4 0 -11.2337
86 4 33.6 8 1.6 -13.3069
87 3 35.2 6.4 0 -11.2363
88 1 36.8 8 1.6 -11.7697
89 3 38.4 6.4 0 -11.1621
90 1 40 8 1.6 -11.7572
91 2 41.6 6.4 0 -9.76901
92 1 43.2 8 1.6 -11.8121
93 3 44.8 6.4 0 -11.2033
94 1 46.4 8 1.6 -11.8554
95 3 48 6.4 0 -11.3089
96 1 49.6 8 1.6 -11.8835
97 3 0 9.6 0 -11.2354
98 1 1.6 11.2 1.6 -11.7045
99 4 3.2 9.6 0 -13.119
100 4 4.8 11.2 1.6 -13.2001
101 2 6.4 9.6 0 -9.68463
102 1 8 11.2 1.6 -11.7511
103 3 9.6 9.6 0 -11.1636
104 1 11.2 11.2 1.6 -11.6754
105 2 12.8 9.6 0 -9.74558
106 1 14.4 11.2 1.6 -11.7354
107 3 16 9.6 0 -11.2976
108 4 17.6 11.2 1.6 -13.3748
109 3 19.2 9.6 0 -11.3388
110 1 20.8 11.2 1.6 -11.8545
111 3 22.4 9.6 0 -11.2029
112 1 24 11.2 1.6 -11.7538
113 2 25.6 9.6 0 -9.66346
114 1 27.2 11.2 1.6 -11.7057
115 4 28.8 9.6 0 -13.1721
116 2 30.4 11.2 1.6 -9.73134
117 2 32 9.6 0 -9.84662
118 1 33.6 11.2 1.6 -11.8458
119 3 35.2 9.6 0 -11.2347
120 4 36.8 11.2 1.6 -13.2978
121 2 38.4 9.6 0 -9.78595
122 4 40 11.2 1.6 -13.3275
123 3 41.6 9.6 0 -11.2337
124 1 43.2 11.2 1.6 -11.7722
125 3 44.8 9.6 0 -11.2408
126 4 46.4 11.2 1.6 -13.2731
127 3 48 9.6 0 -11.2365
128 1 49.6 11.2 1.6 -11.7307
129 2 0 12.8 0 -9.78372
130 2 1.6 14.4 1.6 -9.81989
131 4 3.2 12.8 0 -13.1977
132 2 4.8 14.4 1.6 -9.82639
133 2 6.4 12.8 0 -9.7362
134 1 8 14.4 1.6 -11.6941
135 2 9.6 12.8 0 -9.69805
136 1 11.2 14.4 1.6 -11.6956
137 2 12.8 12.8 0 -9.78652
138 4 14.4 14.4 1.6 -13.2923
139 3 16 12.8 0 -11.3213
140 4 17.6 14.4 1.6 -13.3979
141 3 19.2 12.8 0 -11.2892
142 4 20.8 14.4 1.6 -13.3495
143 2 22.4 12.8 0 -9.81549
144 4 24 14.4 1.6 -13.2822
145 4 25.6 12.8 0 -13.1687
146 1 27.2 14.4 1.6 -11.6246
147 2 28.8 12.8 0 -9.76112
148 1 30.4 14.4 1.6 -11.697
149 2 32 12.8 0 -9.81606
150 1 33.6 14.4 1.6 -11.7071
151 3 35.2 12.8 0 -11.2986
152 4 36.8 14.4 1.6 -13.2622
153 2 38.4 12.8 0 -9.82033
154 2 40 14.4 1.6 -9.7321
155 2 41.6 12.8 0 -9.79126
156 4 43.2 14.4 1.6 -13.1086
157 2 44.8 12.8 0 -9.73443
158 4 46.4 14.4 1.6 -13.1345
159 2 48 12.8 0 -9.70747
160 2 49.6 14.4 1.6 -9.73411
161 4 0 16 0 -13.2982
162 2 1.6 17.6 1.6 -9.75443
163 4 3.2 16 0 -13.2856
164 2 4.8 17.6 1.6 -9.84104
165 4 6.4 16 0 -13.2896
166 2 8 17.6 1.6 -9.81948
167 4 9.6 16 0 -13.2631
168 2 11.2 17.6 1.6 -9.76324
169 2 12.8 16 0 -9.75791
170 2 14.4 17.6 1.6 -9.81849
171 4 16 16 0 -13.2522
172 2 17.6 17.6 1.6 -9.82078
173 2 19.2 16 0 -9.87486
174 1 20.8 17.6 1.6 -11.8246
175 2 22.4 16 0 -9.84407
176 4 24 17.6 1.6 -13.3481
177 4 25.6 16 0 -13.2373
178 2 27.2 17.6 1.6 -9.81738
179 2 28.8 16 0 -9.78634
180 2 30.4 17.6 1.6 -9.79195
181 2 32 16 0 -9.76796
182 2 33.6 17.6 1.6 -9.73959
183 2 35.2 16 0 -9.81725
184 2 36.8 17.6 1.6 -9.81613
185 2 38.4 16 0 -9.78519
186 2 40 17.6 1.6 -9.73442
187 1 41.6 16 0 -11.6042
188 2 43.2 17.6 1.6 -9.75626
189 1 44.8 16 0 -11.6138
190 2 46.4 17.6 1.6 -9.66721
191 1 48 16 0 -11.6248
192 2 49.6 17.6 1.6 -9.75622
193 1 0 19.2 0 -11.7699
194 3 1.6 20.8 1.6 -11.2048
195 1 3.2 19.2 0 -11.7867
196 3 4.8 20.8 1.6 -11.2734
197 4 6.4 19.2 0 -13.3528
198 3 8 20.8 1.6 -11.3061
199 1 9.6 19.2 0 -11.8009
200 3 11.2 20.8 1.6 -11.3053
201 1 12.8 19.2 0 -11.7716
202 3 14.4 20.8 1.6 -11.2632
203 1 16 19.2 0 -11.7171
204 2 17.6 20.8 1.6 -9.81263
205 2 19.2 19.2 0 -9.81435
206 4 20.8 20.8 1.6 -13.349
207 2 22.4 19.2 0 -9.8446
208 2 24 20.8 1.6 -9.77927
209 4 25.6 19.2 0 -13.2187
210 2 27.2 20.8 1.6 -9.82043
211 4 28.8 19.2 0 -13.3198
212 2 30.4 20.8 1.6 -9.78713
213 1 32 19.2 0 -11.7092
214 2 33.6 20.8 1.6 -9.81272
215 4 35.2 19.2 0 -13.296
216 3 36.8 20.8 1.6 -11.2981
217 4 38.4 19.2 0 -13.3488
218 2 40 20.8 1.6 -9.81449
219 4 41.6 19.2 0 -13.2475
220 2 43.2 20.8 1.6 -9.7903
221 2 44.8 19.2 0 -9.71217
222 4 46.4 20.8 1.6 -13.2471
223 1 48 19.2 0 -11.712
224 3 49.6 20.8 1.6 -11.1553
225 1 0 22.4 0 -11.828
226 3 1.6 24 1.6 -11.242
227 1 3.2 22.4 0 -11.8282
228 3 4.8 24 1.6 -11.2036
229 1 6.4 22.4 0 -11.8258
230 3 8 24 1.6 -11.2759
231 1 9.6 22.4 0 -11.8553
232 3 11.2 24 1.6 -11.3027
233 4 12.8 22.4 0 -13.3566
234 2 14.4 24 1.6 -9.79061
235 1 16 22.4 0 -11.749
236 4 17.6 24 1.6 -13.2753
237 4 19.2 22.4 0 -13.2685
238 2 20.8 24 1.6 -9.75945
239 4 22.4 22.4 0 -13.1465
240 4 24 24 1.6 -13.1978
241 4 25.6 22.4 0 -13.2235
242 2 27.2 24 1.6 -9.81594
243 1 28.8 22.4 0 -11.7457
244 2 30.4 24 1.6 -9.75611
245 1 32 22.4 0 -11.7388
246 2 33.6 24 1.6 -9.83848
247 1 35.2 22.4 0 -11.8018
248 3 36.8 24 1.6 -11.2622
249 1 38.4 22.4 0 -11.7902
250 3 40 24 1.6 -11.2669
251 4 41.6 22.4 0 -13.2363
252 3 43.2 24 1.6 -11.2002
253 1 44.8 22.4 0 -11.6709
254 3 46.4 24 1.6 -11.199
255 4 48 22.4 0 -13.2467
256 3 49.6 24 1.6 -11.3081
257 1 0 25.6 0 -11.8439
259 1 3.2 25.6 0 -11.7505
261 1 6.4 25.6 0 -11.781
263 1 9.6 25.6 0 -11.8696
265 4 12.8 25.6 0 -13.3539
267 4 16 25.6 0 -13.292
269 4 19.2 25.6 0 -13.3059
271 1 22.4 25.6 0 -11.6391
273 4 25.6 25.6 0 -13.2544
275 1 28.8 25.6 0 -11.7553
277 1 32 25.6 0 -11.8164
279 4 35.2 25.6 0 -13.3561
281 4 38.4 25.6 0 -13.3731
283 4 41.6 25.6 0 -13.3283
285 1 44.8 25.6 0 -11.7331
287 1 48 25.6 0 -11.8279
258 3 1.6 27.2 1.6 -11.2733
289 4 0 28.8 0 -13.3096
260 3 4.8 27.2 1.6 -11.2384
291 1 3.2 28.8 0 -11.7957
262 3 8 27.2 1.6 -11.2381
293 1 6.4 28.8 0 -11.7827
264 3 11.2 27.2 1.6 -11.269
295 1 9.6 28.8 0 -11.8259
266 2 14.4 27.2 1.6 -9.81047
297 4 12.8 28.8 0 -13.3845
268 2 17.6 27.2 1.6 -9.79236
299 4 16 28.8 0 -13.3293
270 2 20.8 27.2 1.6 -9.81483
301 1 19.2 28.8 0 -11.8037
272 2 24 27.2 1.6 -9.78688
303 1 22.4 28.8 0 -11.7846
305 4 25.6 28.8 0 -13.3499
274 2 27.2 27.2 1.6 -9.84227
307 1 28.8 28.8 0 -11.8018
276 2 30.4 27.2 1.6 -9.78861
309 4 32 28.8 0 -13.3224
278 3 33.6 27.2 1.6 -11.324
311 4 35.2 28.8 0 -13.3392
280 2 36.8 27.2 1.6 -9.89077
313 2 38.4 28.8 0 -9.85883
282 2 40 27.2 1.6 -9.86876
315 4 41.6 28.8 0 -13.2858
284 3 43.2 27.2 1.6 -11.2342
317 1 44.8 28.8 0 -11.8307
286 3 46.4 27.2 1.6 -11.2761
319 1 48 28.8 0 -11.8696
288 3 49.6 27.2 1.6 -11.3089
290 3 1.6 30.4 1.6 -11.2712
321 1 0 32 0 -11.7852
292 3 4.8 30.4 1.6 -11.2723
323 4 3.2 32 0 -13.2815
294 2 8 30.4 1.6 -9.70671
325 1 6.4 32 0 -11.8074
296 3 11.2 30.4 1.6 -11.1991
327 1 9.6 32 0 -11.7508
298 3 14.4 30.4 1.6 -11.3059
329 1 12.8 32 0 -11.8258
300 3 17.6 30.4 1.6 -11.2717
331 1 16 32 0 -11.8416
302 3 20.8 30.4 1.6 -11.2363
333 1 19.2 32 0 -11.7826
304 3 24 30.4 1.6 -11.2644
335 1 22.4 32 0 -11.7962
337 4 25.6 32 0 -13.3564
306 3 27.2 30.4 1.6 -11.3004
339 1 28.8 32 0 -11.8285
308 2 30.4 30.4 1.6 -9.75561
341 4 32 32 0 -13.2576
310 2 33.6 30.4 1.6 -9.76107
343 1 35.2 32 0 -11.7101
312 2 36.8 30.4 1.6 -9.81059
345 4 38.4 32 0 -13.3409
314 2 40 30.4 1.6 -9.86804
347 4 41.6 32 0 -13.3665
316 3 43.2 30.4 1.6 -11.2987
349 4 44.8 32 0 -13.3526
318 3 46.4 30.4 1.6 -11.2726
351 1 48 32 0 -11.8435
320 3 49.6 30.4 1.6 -11.3096
322 2 1.6 33.6 1.6 -9.71483
353 1 0 35.2 0 -11.8221
324 3 4.8 33.6 1.6 -11.2019
355 1 3.2 35.2 0 -11.7986
326 2 8 33.6 1.6 -9.67676
357 1 6.4 35.2 0 -11.812
328 2 11.2 33.6 1.6 -9.71281
359 1 9.6 35.2 0 -11.7655
330 3 14.4 33.6 1.6 -11.2324
361 1 12.8 35.2 0 -11.7869
332 3 17.6 33.6 1.6 -11.2682
363 1 16 35.2 0 -11.8309
334 2 20.8 33.6 1.6 -9.71881
365 1 19.2 35.2 0 -11.7247
336 2 24 33.6 1.6 -9.80779
367 1 22.4 35.2 0 -11.7161
369 1 25.6 35.2 0 -11.7901
338 3 27.2 33.6 1.6 -11.2248
371 2 28.8 35.2 0 -9.76735
340 2 30.4 33.6 1.6 -9.76193
373 2 32 35.2 0 -9.8101
342 2 33.6 33.6 1.6 -9.78926
375 2 35.2 35.2 0 -9.83901
344 4 36.8 33.6 1.6 -13.3163
377 2 38.4 35.2 0 -9.88381
346 2 40 33.6 1.6 -9.88681
379 4 41.6 35.2 0 -13.3348
348 2 43.2 33.6 1.6 -9.86979
381 4 44.8 35.2 0 -13.2591
350 2 46.4 33.6 1.6 -9.77857
383 4 48 35.2 0 -13.3312
352 3 49.6 33.6 1.6 -11.1611
354 3 1.6 36.8 1.6 -11.2384
385 4 0 38.4 0 -13.3572
356 3 4.8 36.8 1.6 -11.2764
387 1 3.2 38.4 0 -11.8277
358 3 8 36.8 1.6 -11.1966
389 1 6.4 38.4 0 -11.8468
360 2 11.2 36.8 1.6 -9.76203
391 4 9.6 38.4 0 -13.3041
362 2 14.4 36.8 1.6 -9.79316
393 4 12.8 38.4 0 -13.3011
364 2 17.6 36.8 1.6 -9.79377
395 2 16 38.4 0 -9.78474
366 4 20.8 36.8 1.6 -13.2002
397 4 19.2 38.4 0 -13.2562
368 3 24 36.8 1.6 -11.2019
399 2 22.4 38.4 0 -9.83406
401 2 25.6 38.4 0 -9.80967
370 2 27.2 36.8 1.6 -9.84348
403 2 28.8 38.4 0 -9.78244
372 1 30.4 36.8 1.6 -11.6488
405 2 32 38.4 0 -9.72159
374 4 33.6 36.8 1.6 -13.286
407 2 35.2 38.4 0 -9.76189
376 4 36.8 36.8 1.6 -13.2918
409 3 38.4 38.4 0 -11.2191
378 2 40 36.8 1.6 -9.82611
411 4 41.6 38.4 0 -13.2201
380 2 43.2 36.8 1.6 -9.76812
413 2 44.8 38.4 0 -9.73499
382 2 46.4 36.8 1.6 -9.79278
415 4 48 38.4 0 -13.3538
384 3 49.6 36.8 1.6 -11.338
386 3 1.6 40 1.6 -11.2718
417 4 0 41.6 0 -13.2731
388 3 4.8 40 1.6 -11.2336
419 1 3.2 41.6 0 -11.7355
390 4 8 40 1.6 -13.3287
421 2 6.4 41.6 0 -9.73561
392 4 11.2 40 1.6 -13.1958
423 2 9.6 41.6 0 -9.82239
394 4 14.4 40 1.6 -13.2729
425 3 12.8 41.6 0 -11.1488
396 4 17.6 40 1.6 -13.2321
427 4 16 41.6 0 -13.2133
398 4 20.8 40 1.6 -13.2488
429 2 19.2 41.6 0 -9.76144
400 4 24 40 1.6 -13.3286
431 2 22.4 41.6 0 -9.81618
433 2 25.6 41.6 0 -9.78187
402 4 27.2 40 1.6 -13.3312
435 3 28.8 41.6 0 -11.1988
404 1 30.4 40 1.6 -11.7514
437 3 32 41.6 0 -11.2045
406 1 33.6 40 1.6 -11.7697
439 3 35.2 41.6 0 -11.2741
408 1 36.8 40 1.6 -11.8451
441 3 38.4 41.6 0 -11.3369
410 4 40 40 1.6 -13.3288
443 3 41.6 41.6 0 -11.1995
412 1 43.2 40 1.6 -11.6896
445 3 44.8 41.6 0 -11.1647
414 4 46.4 40 1.6 -13.3372
447 3 48 41.6 0 -11.1818
416 3 49.6 40 1.6 -11.2796
418 2 1.6 43.2 1.6 -9.76366
449 2 0 44.8 0 -9.72828
420 1 4.8 43.2 1.6 -11.6406
451 2 3.2 44.8 0 -9.76299
422 4 8 43.2 1.6 -13.1988
453 4 6.4 44.8 0 -13.2079
424 1 11.2 43.2 1.6 -11.8013
455 3 9.6 44.8 0 -11.1577
426 1 14.4 43.2 1.6 -11.7667
457 3 12.8 44.8 0 -11.2387
428 1 17.6 43.2 1.6 -11.718
459 3 16 44.8 0 -11.1599
430 4 20.8 43.2 1.6 -13.2665
461 2 19.2 44.8 0 -9.81403
432 1 24 43.2 1.6 -11.7868
463 3 22.4 44.8 0 -11.2656
465 3 25.6 44.8 0 -11.1235
434 1 27.2 43.2 1.6 -11.7676
467 2 28.8 44.8 0 -9.74231
436 1 30.4 43.2 1.6 -11.7986
469 3 32 44.8 0 -11.2397
438 1 33.6 43.2 1.6 -11.8557
471 3 35.2 44.8 0 -11.2756
440 4 36.8 43.2 1.6 -13.3645
473 3 38.4 44.8 0 -11.2378
442 1 40 43.2 1.6 -11.8695
475 3 41.6 44.8 0 -11.2759
444 1 43.2 43.2 1.6 -11.8276
477 3 44.8 44.8 0 -11.2738
446 1 46.4 43.2 1.6 -11.7904
479 2 48 44.8 0 -9.74921
448 4 49.6 43.2 1.6 -13.2783
450 1 1.6 46.4 1.6 -11.7198
481 2 0 48 0 -9.68319
452 4 4.8 46.4 1.6 -13.2001
483 2 3.2 48 0 -9.75486
454 1 8 46.4 1.6 -11.7131
485 2 6.4 48 0 -9.73173
456 1 11.2 46.4 1.6 -11.8015
487 3 9.6 48 0 -11.2032
458 1 14.4 46.4 1.6 -11.8556
489 3 12.8 48 0 -11.3094
460 1 17.6 46.4 1.6 -11.7695
491 3 16 48 0 -11.3419
462 4 20.8 46.4 1.6 -13.3006
493 3 19.2 48 0 -11.2686
464 1 24 46.4 1.6 -11.8416
495 3 22.4 48 0 -11.3395
497 3 25.6 48 0 -11.2761
466 1 27.2 46.4 1.6 -11.7706
499 3 28.8 48 0 -11.2361
468 4 30.4 46.4 1.6 -13.2534
501 3 32 48 0 -11.2733
470 1 33.6 46.4 1.6 -11.8282
503 3 35.2 48 0 -11.2417
472 1 36.8 46.4 1.6 -11.8558
505 3 38.4 48 0 -11.2417
474 1 40 46.4 1.6 -11.8415
507 3 41.6 48 0 -11.2756
476 1 43.2 46.4 1.6 -11.8415
509 3 44.8 48 0 -11.2733
478 4 46.4 46.4 1.6 -13.2785
511 3 48 48 0 -11.1618
480 1 49.6 46.4 1.6 -11.7028
482 1 1.6 49.6 1.6 -11.7503
484 1 4.8 49.6 1.6 -11.7872
486 4 8 49.6 1.6 -13.2825
488 1 11.2 49.6 1.6 -11.8423
490 4 14.4 49.6 1.6 -13.3634
492 1 17.6 49.6 1.6 -11.8252
494 1 20.8 49.6 1.6 -11.809
496 4 24 49.6 1.6 -13.3845
498 1 27.2 49.6 1.6 -11.8258
500 1 30.4 49.6 1.6 -11.8119
502 1 33.6 49.6 1.6 -11.8122
504 1 36.8 49.6 1.6 -11.8417
506 1 40 49.6 1.6 -11.8414
508 1 43.2 49.6 1.6 -11.8416
510 1 46.4 49.6 1.6 -11.7983
512 1 49.6 49.6 1.6 -11.768
513 3 0 0 3.2 -11.2408
514 1 1.6 1.6 4.8 -11.8122
515 3 3.2 0 3.2 -11.2042
516 1 4.8 1.6 4.8 -11.8124
517 3 6.4 0 3.2 -11.24
518 1 8 1.6 4.8 -11.8123
519 3 9.6 0 3.2 -11.2397
520 1 11.2 1.6 4.8 -11.781
521 3 12.8 0 3.2 -11.2761
522 1 14.4 1.6 4.8 -11.7997
523 3 16 0 3.2 -11.2345
524 1 17.6 1.6 4.8 -11.815
525 2 19.2 0 3.2 -9.77528
526 4 20.8 1.6 4.8 -13.3765
527 3 22.4 0 3.2 -11.3036
528 1 24 1.6 4.8 -11.8694
529 3 25.6 0 3.2 -11.307
530 1 27.2 1.6 4.8 -11.8414
531 3 28.8 0 3.2 -11.2036
532 1 30.4 1.6 4.8 -11.8282
533 3 32 0 3.2 -11.2039
534 1 33.6 1.6 4.8 -11.8276
535 3 35.2 0 3.2 -11.2423
536 1 36.8 1.6 4.8 -11.8143
537 3 38.4 0 3.2 -11.2039
538 1 40 1.6 4.8 -11.7697
539 3 41.6 0 3.2 -11.2736
540 1 43.2 1.6 4.8 -11.8293
541 3 44.8 0 3.2 -11.2363
542 1 46.4 1.6 4.8 -11.8111
543 3 48 0 3.2 -11.2029
544 1 49.6 1.6 4.8 -11.8436
545 3 0 3.2 3.2 -11.2753
546 1 1.6 4.8 4.8 -11.8415
547 3 3.2 3.2 3.2 -11.2417
548 1 4.8 4.8 4.8 -11.8416
549 3 6.4 3.2 3.2 -11.2417
550 1 8 4.8 4.8 -11.781
551 3 9.6 3.2 3.2 -11.2039
552 1 11.2 4.8 4.8 -11.7508
553 3 12.8 3.2 3.2 -11.2005
554 1 14.4 4.8 4.8 -11.7702
555 2 16 3.2 3.2 -9.74242
556 1 17.6 4.8 4.8 -11.7382
557 3 19.2 3.2 3.2 -11.1502
558 4 20.8 4.8 4.8 -13.3528
559 3 22.4 3.2 3.2 -11.3397
560 1 24 4.8 4.8 -11.8133
561 3 25.6 3.2 3.2 -11.2756
562 1 27.2 4.8 4.8 -11.857
563 3 28.8 3.2 3.2 -11.2761
564 4 30.4 4.8 4.8 -13.3383
565 3 32 3.2 3.2 -11.2347
566 4 33.6 4.8 4.8 -13.3592
567 3 35.2 3.2 3.2 -11.3028
568 2 36.8 4.8 4.8 -9.77449
569 2 38.4 3.2 3.2 -9.74899
570 1 40 4.8 4.8 -11.7594
571 3 41.6 3.2 3.2 -11.2387
572 1 43.2 4.8 4.8 -11.8556
573 3 44.8 3.2 3.2 -11.3081
574 4 46.4 4.8 4.8 -13.3645
575 3 48 3.2 3.2 -11.3089
576 1 49.6 4.8 4.8 -11.8696
577 3 0 6.4 3.2 -11.3089
578 1 1.6 8 4.8 -11.8414
579 3 3.2 6.4 3.2 -11.2759
580 1 4.8 8 4.8 -11.8278
581 3 6.4 6.4 3.2 -11.2423
582 1 8 8 4.8 -11.8173
583 3 9.6 6.4 3.2 -11.2039
584 1 11.2 8 4.8 -11.7982
585 3 12.8 6.4 3.2 -11.2013
586 1 14.4 8 4.8 -11.7632
587 2 16 6.4 3.2 -9.71494
588 1 17.6 8 4.8 -11.7545
589 3 19.2 6.4 3.2 -11.1977
590 4 20.8 8 4.8 -13.3297
591 3 22.4 6.4 3.2 -11.2734
592 1 24 8 4.8 -11.7516
593 3 25.6 6.4 3.2 -11.2403
594 4 27.2 8 4.8 -13.3339
595 3 28.8 6.4 3.2 -11.2327
596 4 30.4 8 4.8 -13.3258
597 4 32 6.4 3.2 -13.3141
598 4 33.6 8 4.8 -13.3282
599 2 35.2 6.4 3.2 -9.82233
600 4 36.8 8 4.8 -13.2923
601 2 38.4 6.4 3.2 -9.72398
602 1 40 8 4.8 -11.7625
603 3 41.6 6.4 3.2 -11.1648
604 1 43.2 8 4.8 -11.8117
605 3 44.8 6.4 3.2 -11.2756
606 1 46.4 8 4.8 -11.8699
607 3 48 6.4 3.2 -11.3086
608 1 49.6 8 4.8 -11.8432
609 3 0 9.6 3.2 -11.2343
610 4 1.6 11.2 4.8 -13.2704
611 3 3.2 9.6 3.2 -11.2373
612 1 4.8 11.2 4.8 -11.8305
613 3 6.4 9.6 3.2 -11.238
614 4 8 11.2 4.8 -13.3071
615 3 9.6 9.6 3.2 -11.2018
616 1 11.2 11.2 4.8 -11.7154
617 2 12.8 9.6 3.2 -9.64566
618 1 14.4 11.2 4.8 -11.7214
619 2 16 9.6 3.2 -9.71117
620 1 17.6 11.2 4.8 -11.8551
621 3 19.2 9.6 3.2 -11.3043
622 4 20.8 11.2 4.8 -13.3817
623 3 22.4 9.6 3.2 -11.2734
624 1 24 11.2 4.8 -11.831
625 3 25.6 9.6 3.2 -11.2338
626 2 27.2 11.2 4.8 -9.82499
627 2 28.8 9.6 3.2 -9.823
628 4 30.4 11.2 4.8 -13.3372
629 3 32 9.6 3.2 -11.2159
630 4 33.6 11.2 4.8 -13.3468
631 3 35.2 9.6 3.2 -11.3287
632 4 36.8 11.2 4.8 -13.3709
633 2 38.4 9.6 3.2 -9.79072
634 2 40 11.2 4.8 -9.82181
635 3 41.6 9.6 3.2 -11.2357
636 1 43.2 11.2 4.8 -11.7677
637 3 44.8 9.6 3.2 -11.274
638 4 46.4 11.2 4.8 -13.3284
639 3 48 9.6 3.2 -11.2728
640 4 49.6 11.2 4.8 -13.3354
641 4 0 12.8 3.2 -13.2591
642 4 1.6 14.4 4.8 -13.3164
643 2 3.2 12.8 3.2 -9.81516
644 2 4.8 14.4 4.8 -9.88196
645 3 6.4 12.8 3.2 -11.3207
646 4 8 14.4 4.8 -13.3401
647 2 9.6 12.8 3.2 -9.7543
648 2 11.2 14.4 4.8 -9.74067
649 2 12.8 12.8 3.2 -9.6957
650 4 14.4 14.4 4.8 -13.2989
651 3 16 12.8 3.2 -11.265
652 1 17.6 14.4 4.8 -11.8008
653 3 19.2 12.8 3.2 -11.3701
654 1 20.8 14.4 4.8 -11.839
655 3 22.4 12.8 3.2 -11.3369
656 4 24 14.4 4.8 -13.3553
657 3 25.6 12.8 3.2 -11.2231
658 4 27.2 14.4 4.8 -13.2822
659 2 28.8 12.8 3.2 -9.81685
660 2 30.4 14.4 4.8 -9.80901
661 2 32 12.8 3.2 -9.84784
662 2 33.6 14.4 4.8 -9.81046
663 3 35.2 12.8 3.2 -11.2485
664 2 36.8 14.4 4.8 -9.80367
665 4 38.4 12.8 3.2 -13.3162
666 2 40 14.4 4.8 -9.78161
667 2 41.6 12.8 3.2 -9.78913
668 2 43.2 14.4 4.8 -9.78963
669 2 44.8 12.8 3.2 -9.79239
670 2 46.4 14.4 4.8 -9.78911
671 4 48 12.8 3.2 -13.234
672 3 49.6 14.4 4.8 -11.2538
673 4 0 16 3.2 -13.2642
674 2 1.6 17.6 4.8 -9.8436
675 4 3.2 16 3.2 -13.3408
676 3 4.8 17.6 4.8 -11.3101
677 2 6.4 16 3.2 -9.85416
678 4 8 17.6 4.8 -13.3505
679 2 9.6 16 3.2 -9.79441
680 4 11.2 17.6 4.8 -13.2795
681 2 12.8 16 3.2 -9.82297
682 4 14.4 17.6 4.8 -13.2481
683 2 16 16 3.2 -9.87013
684 4 17.6 17.6 4.8 -13.2833
685 3 19.2 16 3.2 -11.2935
686 4 20.8 17.6 4.8 -13.3684
687 3 22.4 16 3.2 -11.3562
688 2 24 17.6 4.8 -9.82606
689 2 25.6 16 3.2 -9.79215
690 2 27.2 17.6 4.8 -9.84109
691 4 28.8 16 3.2 -13.2767
692 4 30.4 17.6 4.8 -13.2729
693 2 32 16 3.2 -9.73893
694 4 33.6 17.6 4.8 -13.2457
695 1 35.2 16 3.2 -11.6481
696 2 36.8 17.6 4.8 -9.72711
697 1 38.4 16 3.2 -11.6396
698 2 40 17.6 4.8 -9.71643
699 1 41.6 16 3.2 -11.6696
700 3 43.2 17.6 4.8 -11.2217
701 4 44.8 16 3.2 -13.1867
702 2 46.4 17.6 4.8 -9.81281
703 1 48 16 3.2 -11.6968
704 3 49.6 17.6 4.8 -11.229
705 1 0 19.2 3.2 -11.7758
706 3 1.6 20.8 4.8 -11.2675
707 1 3.2 19.2 3.2 -11.7985
708 3 4.8 20.8 4.8 -11.3364
709 4 6.4 19.2 3.2 -13.3851
710 3 8 20.8 4.8 -11.3005
711 4 9.6 19.2 3.2 -13.3316
712 3 11.2 20.8 4.8 -11.2891
713 1 12.8 19.2 3.2 -11.7506
714 2 14.4 20.8 4.8 -9.86644
715 2 16 19.2 3.2 -9.82603
716 4 17.6 20.8 4.8 -13.3156
717 2 19.2 19.2 3.2 -9.89484
718 4 20.8 20.8 4.8 -13.2886
719 3 22.4 19.2 3.2 -11.3174
720 1 24 20.8 4.8 -11.7487
721 4 25.6 19.2 3.2 -13.3489
722 4 27.2 20.8 4.8 -13.2815
723 2 28.8 19.2 3.2 -9.82921
724 2 30.4 20.8 4.8 -9.79098
725 4 32 19.2 3.2 -13.2895
726 3 33.6 20.8 4.8 -11.2187
727 4 35.2 19.2 3.2 -13.3072
728 3 36.8 20.8 4.8 -11.3349
729 4 38.4 19.2 3.2 -13.2937
730 3 40 20.8 4.8 -11.2337
731 4 41.6 19.2 3.2 -13.2977
732 3 43.2 20.8 4.8 -11.2698
733 4 44.8 19.2 3.2 -13.3494
734 3 46.4 20.8 4.8 -11.2297
735 4 48 19.2 3.2 -13.2522
736 2 49.6 20.8 4.8 -9.8336
737 1 0 22.4 3.2 -11.8279
738 3 1.6 24 4.8 -11.2756
739 1 3.2 22.4 3.2 -11.8556
740 3 4.8 24 4.8 -11.2756
741 1 6.4 22.4 3.2 -11.8553
742 3 8 24 4.8 -11.24
743 1 9.6 22.4 3.2 -11.8572
744 2 11.2 24 4.8 -9.78486
745 4 12.8 22.4 3.2 -13.3506
746 2 14.4 24 4.8 -9.81483
747 4 16 22.4 3.2 -13.315
748 2 17.6 24 4.8 -9.82704
749 2 19.2 22.4 3.2 -9.84446
750 4 20.8 24 4.8 -13.34
751 2 22.4 22.4 3.2 -9.82039
752 4 24 24 4.8 -13.2628
753 2 25.6 22.4 3.2 -9.81391
754 2 27.2 24 4.8 -9.81908
755 4 28.8 22.4 3.2 -13.2845
756 2 30.4 24 4.8 -9.84619
757 4 32 22.4 3.2 -13.2877
758 2 33.6 24 4.8 -9.84001
759 4 35.2 22.4 3.2 -13.3239
760 2 36.8 24 4.8 -9.78847
761 1 38.4 22.4 3.2 -11.8433
762 3 40 24 4.8 -11.2328
763 1 41.6 22.4 3.2 -11.8154
764 3 43.2 24 4.8 -11.2408
765 1 44.8 22.4 3.2 -11.7825
766 3 46.4 24 4.8 -11.2764
767 4 48 22.4 3.2 -13.3415
768 3 49.6 24 4.8 -11.2391
769 1 0 25.6 3.2 -11.8413
771 1 3.2 25.6 3.2 -11.8557
773 1 6.4 25.6 3.2 -11.8557
775 4 9.6 25.6 3.2 -13.3106
777 1 12.8 25.6 3.2 -11.7274
779 4 16 25.6 3.2 -13.226
781 2 19.2 25.6 3.2 -9.83605
783 4 22.4 25.6 3.2 -13.2836
785 2 25.6 25.6 3.2 -9.80182
787 4 28.8 25.6 3.2 -13.3113
789 2 32 25.6 3.2 -9.81438
791 4 35.2 25.6 3.2 -13.3035
793 4 38.4 25.6 3.2 -13.2653
795 1 41.6 25.6 3.2 -11.7871
797 1 44.8 25.6 3.2 -11.8117
799 1 48 25.6 3.2 -11.8702
770 3 1.6 27.2 4.8 -11.2753
801 1 0 28.8 3.2 -11.8842
772 3 4.8 27.2 4.8 -11.2753
803 4 3.2 28.8 3.2 -13.3645
774 3 8 27.2 4.8 -11.2397
805 1 6.4 28.8 3.2 -11.8259
776 2 11.2 27.2 4.8 -9.71291
807 1 9.6 28.8 3.2 -11.7984
778 2 14.4 27.2 4.8 -9.66656
809 1 12.8 28.8 3.2 -11.7652
780 4 17.6 27.2 4.8 -13.3083
811 1 16 28.8 3.2 -11.7705
782 2 20.8 27.2 4.8 -9.86722
813 4 19.2 28.8 3.2 -13.3288
784 2 24 27.2 4.8 -9.79381
815 4 22.4 28.8 3.2 -13.3238
817 4 25.6 28.8 3.2 -13.351
786 2 27.2 27.2 4.8 -9.79002
819 4 28.8 28.8 3.2 -13.2932
788 2 30.4 27.2 4.8 -9.87213
821 1 32 28.8 3.2 -11.7897
790 3 33.6 27.2 4.8 -11.2504
823 4 35.2 28.8 3.2 -13.2633
792 1 36.8 27.2 4.8 -11.5931
825 2 38.4 28.8 3.2 -9.8078
794 4 40 27.2 4.8 -13.1817
827 4 41.6 28.8 3.2 -13.2922
796 2 43.2 27.2 4.8 -9.78449
829 1 44.8 28.8 3.2 -11.8574
798 3 46.4 27.2 4.8 -11.2733
831 4 48 28.8 3.2 -13.3645
800 3 49.6 27.2 4.8 -11.2753
802 3 1.6 30.4 4.8 -11.2381
833 1 0 32 3.2 -11.7505
804 3 4.8 30.4 4.8 -11.3084
835 1 3.2 32 3.2 -11.8096
806 3 8 30.4 4.8 -11.2381
837 1 6.4 32 3.2 -11.7941
808 3 11.2 30.4 4.8 -11.2051
839 1 9.6 32 3.2 -11.7508
810 3 14.4 30.4 4.8 -11.1997
841 1 12.8 32 3.2 -11.817
812 3 17.6 30.4 4.8 -11.2686
843 4 16 32 3.2 -13.3593
814 3 20.8 30.4 4.8 -11.2658
845 1 19.2 32 3.2 -11.8552
816 2 24 30.4 4.8 -9.81326
847 1 22.4 32 3.2 -11.7846
849 1 25.6 32 3.2 -11.7946
818 3 27.2 30.4 4.8 -11.2605
851 1 28.8 32 3.2 -11.7395
820 3 30.4 30.4 4.8 -11.1883
853 1 32 32 3.2 -11.686
822 2 33.6 30.4 4.8 -9.76005
855 4 35.2 32 3.2 -13.1918
824 4 36.8 30.4 4.8 -13.2428
857 2 38.4 32 3.2 -9.84341
826 4 40 30.4 4.8 -13.345
859 4 41.6 32 3.2 -13.3521
828 3 43.2 30.4 4.8 -11.3
861 1 44.8 32 3.2 -11.813
830 3 46.4 30.4 4.8 -11.2736
863 1 48 32 3.2 -11.7976
832 3 49.6 30.4 4.8 -11.2381
834 2 1.6 33.6 4.8 -9.67664
865 1 0 35.2 3.2 -11.7506
836 3 4.8 33.6 4.8 -11.2381
867 1 3.2 35.2 3.2 -11.7808
838 3 8 33.6 4.8 -11.239
869 1 6.4 35.2 3.2 -11.8259
840 3 11.2 33.6 4.8 -11.1961
871 1 9.6 35.2 3.2 -11.7556
842 2 14.4 33.6 4.8 -9.86962
873 4 12.8 35.2 3.2 -13.2704
844 3 17.6 33.6 4.8 -11.297
875 4 16 35.2 3.2 -13.3132
846 3 20.8 33.6 4.8 -11.3031
877 4 19.2 35.2 3.2 -13.2869
848 3 24 33.6 4.8 -11.1463
879 4 22.4 35.2 3.2 -13.3033
881 4 25.6 35.2 3.2 -13.28
850 4 27.2 33.6 4.8 -13.2834
883 4 28.8 35.2 3.2 -13.258
852 2 30.4 33.6 4.8 -9.73294
885 4 32 35.2 3.2 -13.2153
854 2 33.6 33.6 4.8 -9.78005
887 2 35.2 35.2 3.2 -9.84592
856 4 36.8 33.6 4.8 -13.3152
889 2 38.4 35.2 3.2 -9.86737
858 4 40 33.6 4.8 -13.3735
891 2 41.6 35.2 3.2 -9.84585
860 3 43.2 33.6 4.8 -11.2949
893 1 44.8 35.2 3.2 -11.762
862 3 46.4 33.6 4.8 -11.1648
895 1 48 35.2 3.2 -11.7847
864 2 49.6 33.6 4.8 -9.70683
866 3 1.6 36.8 4.8 -11.2042
897 1 0 38.4 3.2 -11.8412
868 3 4.8 36.8 4.8 -11.2764
899 1 3.2 38.4 3.2 -11.8695
870 3 8 36.8 4.8 -11.2687
901 4 6.4 38.4 3.2 -13.332
872 2 11.2 36.8 4.8 -9.79258
903 4 9.6 38.4 3.2 -13.2595
874 4 14.4 36.8 4.8 -13.2725
905 4 12.8 38.4 3.2 -13.1858
876 2 17.6 36.8 4.8 -9.84401
907 4 16 38.4 3.2 -13.2498
878 2 20.8 36.8 4.8 -9.78963
909 4 19.2 38.4 3.2 -13.1769
880 4 24 36.8 4.8 -13.2854
911 2 22.4 38.4 3.2 -9.79119
913 4 25.6 38.4 3.2 -13.28
882 2 27.2 36.8 4.8 -9.81522
915 2 28.8 38.4 3.2 -9.79031
884 4 30.4 36.8 4.8 -13.2525
917 2 32 38.4 3.2 -9.75524
886 4 33.6 36.8 4.8 -13.3326
919 3 35.2 38.4 3.2 -11.1954
888 1 36.8 36.8 4.8 -11.8305
921 2 38.4 38.4 3.2 -9.84212
890 4 40 36.8 4.8 -13.3197
923 4 41.6 38.4 3.2 -13.2084
892 2 43.2 36.8 4.8 -9.84483
925 4 44.8 38.4 3.2 -13.2579
894 3 46.4 36.8 4.8 -11.2995
927 4 48 38.4 3.2 -13.3804
896 3 49.6 36.8 4.8 -11.2355
898 3 1.6 40 4.8 -11.2352
929 1 0 41.6 3.2 -11.7684
900 3 4.8 40 4.8 -11.2963
931 4 3.2 41.6 3.2 -13.2717
902 2 8 40 4.8 -9.81765
933 4 6.4 41.6 3.2 -13.2868
904 1 11.2 40 4.8 -11.6997
935 2 9.6 41.6 3.2 -9.76341
906 4 14.4 40 4.8 -13.2593
937 3 12.8 41.6 3.2 -11.155
908 4 17.6 40 4.8 -13.3145
939 3 16 41.6 3.2 -11.1923
910 1 20.8 40 4.8 -11.7348
941 2 19.2 41.6 3.2 -9.7611
912 1 24 40 4.8 -11.6787
943 3 22.4 41.6 3.2 -11.1965
945 3 25.6 41.6 3.2 -11.1978
914 4 27.2 40 4.8 -13.2905
947 3 28.8 41.6 3.2 -11.2701
916 4 30.4 40 4.8 -13.3063
949 3 32 41.6 3.2 -11.2026
918 1 33.6 40 4.8 -11.8173
951 3 35.2 41.6 3.2 -11.2767
920 1 36.8 40 4.8 -11.8011
953 3 38.4 41.6 3.2 -11.2689
922 4 40 40 4.8 -13.2974
955 3 41.6 41.6 3.2 -11.2311
924 4 43.2 40 4.8 -13.2949
957 2 44.8 41.6 3.2 -9.81674
926 3 46.4 40 4.8 -11.2769
959 2 48 41.6 3.2 -9.82936
928 2 49.6 40 4.8 -9.80578
930 2 1.6 43.2 4.8 -9.84539
961 2 0 44.8 3.2 -9.81475
932 4 4.8 43.2 4.8 -13.2522
963 2 3.2 44.8 3.2 -9.79507
934 4 8 43.2 4.8 -13.2604
965 2 6.4 44.8 3.2 -9.67471
936 1 11.2 43.2 4.8 -11.7485
967 3 9.6 44.8 3.2 -11.1558
938 1 14.4 43.2 4.8 -11.8302
969 2 12.8 44.8 3.2 -9.8001
940 1 17.6 43.2 4.8 -11.7957
971 3 16 44.8 3.2 -11.2028
942 1 20.8 43.2 4.8 -11.7701
973 2 19.2 44.8 3.2 -9.68947
944 1 24 43.2 4.8 -11.7982
975 2 22.4 44.8 3.2 -9.77488
977 3 25.6 44.8 3.2 -11.1661
946 1 27.2 43.2 4.8 -11.798
979 2 28.8 44.8 3.2 -9.71393
948 1 30.4 43.2 4.8 -11.7679
981 3 32 44.8 3.2 -11.1615
950 1 33.6 43.2 4.8 -11.7804
983 3 35.2 44.8 3.2 -11.2764
952 1 36.8 43.2 4.8 -11.812
985 3 38.4 44.8 3.2 -11.2378
954 1 40 43.2 4.8 -11.8011
987 3 41.6 44.8 3.2 -11.2767
956 4 43.2 43.2 4.8 -13.3007
989 3 44.8 44.8 3.2 -11.2299
958 4 46.4 43.2 4.8 -13.2994
991 2 48 44.8 3.2 -9.81994
960 2 49.6 43.2 4.8 -9.78598
962 4 1.6 46.4 4.8 -13.3287
993 2 0 48 3.2 -9.72783
964 4 4.8 46.4 4.8 -13.2904
995 3 3.2 48 3.2 -11.195
966 1 8 46.4 4.8 -11.73
997 2 6.4 48 3.2 -9.7534
968 4 11.2 46.4 4.8 -13.3103
999 2 9.6 48 3.2 -9.77731
970 4 14.4 46.4 4.8 -13.335
1001 3 12.8 48 3.2 -11.2681
972 1 17.6 46.4 4.8 -11.7851
1003 3 16 48 3.2 -11.2712
974 1 20.8 46.4 4.8 -11.7704
1005 2 19.2 48 3.2 -9.75144
976 1 24 46.4 4.8 -11.8121
1007 3 22.4 48 3.2 -11.2361
1009 3 25.6 48 3.2 -11.2381
978 1 27.2 46.4 4.8 -11.781
1011 2 28.8 48 3.2 -9.71381
980 1 30.4 46.4 4.8 -11.7434
1013 2 32 48 3.2 -9.74231
982 1 33.6 46.4 4.8 -11.7904
1015 3 35.2 48 3.2 -11.1636
984 1 36.8 46.4 4.8 -11.8017
1017 3 38.4 48 3.2 -11.242
986 1 40 46.4 4.8 -11.8277
1019 3 41.6 48 3.2 -11.2394
988 1 43.2 46.4 4.8 -11.8598
1021 2 44.8 48 3.2 -9.8087
990 4 46.4 46.4 4.8 -13.2988
1023 2 48 48 3.2 -9.76089
992 2 49.6 46.4 4.8 -9.80711
994 1 1.6 49.6 4.8 -11.7575
996 1 4.8 49.6 4.8 -11.7979
998 1 8 49.6 4.8 -11.7985
1000 1 11.2 49.6 4.8 -11.828
1002 1 14.4 49.6 4.8 -11.8571
1004 4 17.6 49.6 4.8 -13.2852
1006 1 20.8 49.6 4.8 -11.8137
1008 1 24 49.6 4.8 -11.8556
1010 1 27.2 49.6 4.8 -11.8123
1012 1 30.4 49.6 4.8 -11.7808
1014 1 33.6 49.6 4.8 -11.7998
1016 1 36.8 49.6 4.8 -11.8122
1018 1 40 49.6 4.8 -11.8281
1020 4 43.2 49.6 4.8 -13.2837
1022 1 46.4 49.6 4.8 -11.7341
1024 4 49.6 49.6 4.8 -13.2481
1025 3 0 0 6.4 -11.1942
1026 1 1.6 1.6 8 -11.7939
1027 2 3.2 0 6.4 -9.70706
1028 1 4.8 1.6 8 -11.7961
1029 3 6.4 0 6.4 -11.2054
1030 1 8 1.6 8 -11.7707
1031 3 9.6 0 6.4 -11.1232
1032 1 11.2 1.6 8 -11.7526
1033 3 12.8 0 6.4 -11.2405
1034 4 14.4 1.6 8 -13.3348
1035 3 16 0 6.4 -11.2737
1036 1 17.6 1.6 8 -11.7718
1037 3 19.2 0 6.4 -11.2699
1038 4 20.8 1.6 8 -13.3167
1039 3 22.4 0 6.4 -11.272
1040 1 24 1.6 8 -11.7609
1041 3 25.6 0 6.4 -11.2045
1042 1 27.2 1.6 8 -11.7245
1043 3 28.8 0 6.4 -11.2051
1044 1 30.4 1.6 8 -11.7095
1045 3 32 0 6.4 -11.2016
1046 1 33.6 1.6 8 -11.7447
1047 3 35.2 0 6.4 -11.2032
1048 1 36.8 1.6 8 -11.7741
1049 3 38.4 0 6.4 -11.2032
1050 4 40 1.6 8 -13.2746
1051 2 41.6 0 6.4 -9.78239
1052 4 43.2 1.6 8 -13.2371
1053 2 44.8 0 6.4 -9.78787
1054 4 46.4 1.6 8 -13.2996
1055 2 48 0 6.4 -9.78595
1056 4 49.6 1.6 8 -13.3595
1057 3 0 3.2 6.4 -11.2759
1058 1 1.6 4.8 8 -11.8414
1059 3 3.2 3.2 6.4 -11.2036
1060 1 4.8 4.8 8 -11.8556
1061 3 6.4 3.2 6.4 -11.2039
1062 1 8 4.8 8 -11.7961
1063 2 9.6 3.2 6.4 -9.67688
1064 1 11.2 4.8 8 -11.7545
1065 2 12.8 3.2 6.4 -9.74122
1066 1 14.4 4.8 8 -11.7658
1067 3 16 3.2 6.4 -11.1238
1068 1 17.6 4.8 8 -11.7024
1069 3 19.2 3.2 6.4 -11.263
1070 4 20.8 4.8 8 -13.2856
1071 3 22.4 3.2 6.4 -11.332
1072 4 24 4.8 8 -13.2388
1073 3 25.6 3.2 6.4 -11.2008
1074 4 27.2 4.8 8 -13.3035
1075 3 28.8 3.2 6.4 -11.2371
1076 1 30.4 4.8 8 -11.8118
1077 2 32 3.2 6.4 -9.80399
1078 4 33.6 4.8 8 -13.325
1079 3 35.2 3.2 6.4 -11.2258
1080 4 36.8 4.8 8 -13.2267
1081 2 38.4 3.2 6.4 -9.78842
1082 1 40 4.8 8 -11.7226
1083 3 41.6 3.2 6.4 -11.2
1084 1 43.2 4.8 8 -11.7451
1085 3 44.8 3.2 6.4 -11.2338
1086 1 46.4 4.8 8 -11.7954
1087 3 48 3.2 6.4 -11.3057
1088 1 49.6 4.8 8 -11.87
1089 3 0 6.4 6.4 -11.2391
1090 1 1.6 8 8 -11.8574
1091 3 3.2 6.4 6.4 -11.2759
1092 4 4.8 8 8 -13.362
1093 3 6.4 6.4 6.4 -11.2354
1094 4 8 8 8 -13.3572
1095 2 9.6 6.4 6.4 -9.77217
1096 4 11.2 8 8 -13.3281
1097 3 12.8 6.4 6.4 -11.1963
1098 4 14.4 8 8 -13.3578
1099 3 16 6.4 6.4 -11.1576
1100 4 17.6 8 8 -13.2902
1101 4 19.2 6.4 6.4 -13.2415
1102 4 20.8 8 8 -13.2549