ITEM: TIMESTEP
0
ITEM: NUMBER OF ATOMS
8192
ITEM: BOX BOUNDS pp pp pp
0.0000000000000000e+00 5.1200000000000003e+01
0.0000000000000000e+00 5.1200000000000003e+01
0.0000000000000000e+00 5.1200000000000003e+01
ITEM: ATOMS id type x y z c_eng
1 3 0 0 0 -11.2417
2 1 1.6 1.6 1.6 -11.8557
3 3 3.2 0 0 -11.2705
4 4 4.8 1.6 1.6 -13.3575
5 3 6.4 0 0 -11.2983
6 1 8 1.6 1.6 -11.8452
7 3 9.6 0 0 -11.3051
8 1 11.2 1.6 1.6 -11.8119
9 3 12.8 0 0 -11.2042
10 1 14.4 1.6 1.6 -11.8415
11 3 16 0 0 -11.2759
12 1 17.6 1.6 1.6 -11.8558
13 3 19.2 0 0 -11.2394
14 1 20.8 1.6 1.6 -11.8282
15 3 22.4 0 0 -11.2402
16 4 24 1.6 1.6 -13.3112
17 3 25.6 0 0 -11.2374
18 1 27.2 1.6 1.6 -11.8438
19 3 28.8 0 0 -11.2761
20 1 30.4 1.6 1.6 -11.8122
21 3 32 0 0 -11.1639
22 1 33.6 1.6 1.6 -11.7996
23 2 35.2 0 0 -9.77464
24 1 36.8 1.6 1.6 -11.8414
25 3 38.4 0 0 -11.2729
26 1 40 1.6 1.6 -11.8122
27 3 41.6 0 0 -11.2036
28 1 43.2 1.6 1.6 -11.8124
29 3 44.8 0 0 -11.2036
30 1 46.4 1.6 1.6 -11.8417
31 3 48 0 0 -11.2417
32 1 49.6 1.6 1.6 -11.8416
33 3 0 3.2 0 -11.2036
34 1 1.6 4.8 1.6 -11.828
35 3 3.2 3.2 0 -11.2714
36 1 4.8 4.8 1.6 -11.8552
37 3 6.4 3.2 0 -11.3049
38 1 8 4.8 1.6 -11.8135
39 3 9.6 3.2 0 -11.2721
40 1 11.2 4.8 1.6 -11.7938
41 3 12.8 3.2 0 -11.2737
42 1 14.4 4.8 1.6 -11.828
43 3 16 3.2 0 -11.2397
44 1 17.6 4.8 1.6 -11.812
45 3 19.2 3.2 0 -11.2417
46 1 20.8 4.8 1.6 -11.8557
47 3 22.4 3.2 0 -11.2756
48 1 24 4.8 1.6 -11.8556
49 3 25.6 3.2 0 -11.3084
50 1 27.2 4.8 1.6 -11.8556
51 3 28.8 3.2 0 -11.2378
52 1 30.4 4.8 1.6 -11.7703
53 2 32 3.2 0 -9.77476
54 4 33.6 4.8 1.6 -13.3209
55 3 35.2 3.2 0 -11.2945
56 4 36.8 4.8 1.6 -13.4023
57 3 38.4 3.2 0 -11.3014
58 1 40 4.8 1.6 -11.8258
59 2 41.6 3.2 0 -9.735
60 1 43.2 4.8 1.6 -11.8123
61 3 44.8 3.2 0 -11.2033
62 1 46.4 4.8 1.6 -11.8416
63 3 48 3.2 0 -11.2417
64 1 49.6 4.8 1.6 -11.8259
65 2 0 6.4 0 -9.76879
66 4 1.6 8 1.6 -13.3569
67 3 3.2 6.4 0 -11.2733
68 1 4.8 8 1.6 -11.8713
69 3 6.4 6.4 0 -11.2751
70 4 8 8 1.6 -13.3289
71 3 9.6 6.4 0 -11.2694
72 1 11.2 8 1.6 -11.7569
73 3 12.8 6.4 0 -11.2307
74 1 14.4 8 1.6 -11.7724
75 2 16 6.4 0 -9.77991
76 1 17.6 8 1.6 -11.8142
77 3 19.2 6.4 0 -11.2376
78 4 20.8 8 1.6 -13.3604
79 3 22.4 6.4 0 -11.2761
80 1 24 8 1.6 -11.8555
81 3 25.6 6.4 0 -11.2391
82 1 27.2 8 1.6 -11.8555
83 3 28.8 6.4 0 -11.2387
84 1 30.4 8 1.6 -11.735
85 2 32 6.4 0 -9.68844
86 1 33.6 8 1.6 -11.6661
87 2 35.2 6.4 0 -9.7758
88 1 36.8 8 1.6 -11.7652
89 3 38.4 6.4 0 -11.2732
90 1 40 8 1.6 -11.8694
91 3 41.6 6.4 0 -11.2033
92 1 43.2 8 1.6 -11.8436
93 3 44.8 6.4 0 -11.242
94 1 46.4 8 1.6 -11.798
95 3 48 6.4 0 -11.2039
96 1 49.6 8 1.6 -11.8131
97 3 0 9.6 0 -11.1998
98 1 1.6 11.2 1.6 -11.7773
99 3 3.2 9.6 0 -11.2355
100 1 4.8 11.2 1.6 -11.7413
101 2 6.4 9.6 0 -9.8388
102 4 8 11.2 1.6 -13.3241
103 2 9.6 9.6 0 -9.81731
104 1 11.2 11.2 1.6 -11.7327
105 2 12.8 9.6 0 -9.78545
106 4 14.4 11.2 1.6 -13.2655
107 2 16 9.6 0 -9.81825
108 4 17.6 11.2 1.6 -13.2536
109 2 19.2 9.6 0 -9.84219
110 4 20.8 11.2 1.6 -13.344
111 3 22.4 9.6 0 -11.1953
112 1 24 11.2 1.6 -11.8317
113 3 25.6 9.6 0 -11.2426
114 1 27.2 11.2 1.6 -11.8567
115 3 28.8 9.6 0 -11.2734
116 4 30.4 11.2 1.6 -13.3256
117 2 32 9.6 0 -9.72292
118 4 33.6 11.2 1.6 -13.2311
119 2 35.2 9.6 0 -9.71632
120 1 36.8 11.2 1.6 -11.7446
121 3 38.4 9.6 0 -11.2347
122 4 40 11.2 1.6 -13.3502
123 3 41.6 9.6 0 -11.339
124 4 43.2 11.2 1.6 -13.3551
125 3 44.8 9.6 0 -11.2707
126 4 46.4 11.2 1.6 -13.3195
127 3 48 9.6 0 -11.2347
128 1 49.6 11.2 1.6 -11.7501
129 4 0 12.8 0 -13.2916
130 3 1.6 14.4 1.6 -11.2032
131 2 3.2 12.8 0 -9.78144
132 2 4.8 14.4 1.6 -9.88588
133 3 6.4 12.8 0 -11.245
134 4 8 14.4 1.6 -13.3763
135 3 9.6 12.8 0 -11.3204
136 4 11.2 14.4 1.6 -13.3511
137 2 12.8 12.8 0 -9.83639
138 2 14.4 14.4 1.6 -9.81529
139 4 16 12.8 0 -13.2323
140 1 17.6 14.4 1.6 -11.6674
141 2 19.2 12.8 0 -9.69997
142 1 20.8 14.4 1.6 -11.7278
143 2 22.4 12.8 0 -9.75235
144 4 24 14.4 1.6 -13.3019
145 3 25.6 12.8 0 -11.2303
146 4 27.2 14.4 1.6 -13.326
147 3 28.8 12.8 0 -11.3616
148 4 30.4 14.4 1.6 -13.3681
149 2 32 12.8 0 -9.8955
150 4 33.6 14.4 1.6 -13.3123
151 3 35.2 12.8 0 -11.2547
152 4 36.8 14.4 1.6 -13.2586
153 2 38.4 12.8 0 -9.81835
154 4 40 14.4 1.6 -13.258
155 3 41.6 12.8 0 -11.2559
156 1 43.2 14.4 1.6 -11.7624
157 2 44.8 12.8 0 -9.87057
158 4 46.4 14.4 1.6 -13.2981
159 2 48 12.8 0 -9.76239
160 2 49.6 14.4 1.6 -9.84398
161 4 0 16 0 -13.2092
162 2 1.6 17.6 1.6 -9.78185
163 4 3.2 16 0 -13.3466
164 3 4.8 17.6 1.6 -11.2577
165 4 6.4 16 0 -13.3598
166 2 8 17.6 1.6 -9.84847
167 3 9.6 16 0 -11.277
168 3 11.2 17.6 1.6 -11.3151
169 4 12.8 16 0 -13.4065
170 4 14.4 17.6 1.6 -13.2005
171 2 16 16 0 -9.80062
172 2 17.6 17.6 1.6 -9.79088
173 4 19.2 16 0 -13.2417
174 2 20.8 17.6 1.6 -9.8154
175 2 22.4 16 0 -9.73239
176 2 24 17.6 1.6 -9.81596
177 4 25.6 16 0 -13.2789
178 2 27.2 17.6 1.6 -9.81866
179 2 28.8 16 0 -9.86589
180 2 30.4 17.6 1.6 -9.88788
181 2 32 16 0 -9.8912
182 2 33.6 17.6 1.6 -9.78761
183 2 35.2 16 0 -9.81681
184 2 36.8 17.6 1.6 -9.75908
185 4 38.4 16 0 -13.296
186 3 40 17.6 1.6 -11.2577
187 2 41.6 16 0 -9.83522
188 3 43.2 17.6 1.6 -11.2556
189 2 44.8 16 0 -9.78529
190 2 46.4 17.6 1.6 -9.76441
191 1 48 16 0 -11.6981
192 3 49.6 17.6 1.6 -11.1541
193 1 0 19.2 0 -11.718
194 2 1.6 20.8 1.6 -9.71952
195 4 3.2 19.2 0 -13.2669
196 3 4.8 20.8 1.6 -11.2296
197 1 6.4 19.2 0 -11.7987
198 3 8 20.8 1.6 -11.1994
199 1 9.6 19.2 0 -11.8425
200 3 11.2 20.8 1.6 -11.2374
201 1 12.8 19.2 0 -11.7421
202 2 14.4 20.8 1.6 -9.69274
203 4 16 19.2 0 -13.2285
204 3 17.6 20.8 1.6 -11.2209
205 4 19.2 19.2 0 -13.3359
206 3 20.8 20.8 1.6 -11.3544
207 4 22.4 19.2 0 -13.3162
208 2 24 20.8 1.6 -9.75878
209 4 25.6 19.2 0 -13.1973
210 3 27.2 20.8 1.6 -11.2665
211 4 28.8 19.2 0 -13.3685
212 3 30.4 20.8 1.6 -11.3371
213 4 32 19.2 0 -13.3003
214 3 33.6 20.8 1.6 -11.2734
215 1 35.2 19.2 0 -11.7455
216 3 36.8 20.8 1.6 -11.239
217 1 38.4 19.2 0 -11.7569
218 3 40 20.8 1.6 -11.2737
219 1 41.6 19.2 0 -11.8144
220 3 43.2 20.8 1.6 -11.2362
221 1 44.8 19.2 0 -11.7545
222 3 46.4 20.8 1.6 -11.2032
223 1 48 19.2 0 -11.7223
224 2 49.6 20.8 1.6 -9.74132
225 1 0 22.4 0 -11.7167
226 2 1.6 24 1.6 -9.71871
227 4 3.2 22.4 0 -13.2691
228 2 4.8 24 1.6 -9.74777
229 1 6.4 22.4 0 -11.8093
230 2 8 24 1.6 -9.74088
231 1 9.6 22.4 0 -11.7843
232 3 11.2 24 1.6 -11.201
233 1 12.8 22.4 0 -11.7525
234 3 14.4 24 1.6 -11.1657
235 1 16 22.4 0 -11.7445
236 3 17.6 24 1.6 -11.2586
237 4 19.2 22.4 0 -13.3853
238 3 20.8 24 1.6 -11.3583
239 4 22.4 22.4 0 -13.3465
240 3 24 24 1.6 -11.3051
241 1 25.6 22.4 0 -11.7547
242 3 27.2 24 1.6 -11.3357
243 4 28.8 22.4 0 -13.3528
244 3 30.4 24 1.6 -11.2727
245 1 32 22.4 0 -11.8414
246 3 33.6 24 1.6 -11.2759
247 1 35.2 22.4 0 -11.8556
248 3 36.8 24 1.6 -11.2746
249 1 38.4 22.4 0 -11.8413
250 3 40 24 1.6 -11.2687
251 1 41.6 22.4 0 -11.828
252 2 43.2 24 1.6 -9.8001
253 1 44.8 22.4 0 -11.7844
254 3 46.4 24 1.6 -11.1642
255 1 48 22.4 0 -11.7699
256 3 49.6 24 1.6 -11.1232
257 1 0 25.6 0 -11.7503
259 1 3.2 25.6 0 -11.7834
261 1 6.4 25.6 0 -11.7937
263 1 9.6 25.6 0 -11.7677
265 1 12.8 25.6 0 -11.7986
267 1 16 25.6 0 -11.7895
269 4 19.2 25.6 0 -13.3764
271 1 22.4 25.6 0 -11.8836
273 4 25.6 25.6 0 -13.3799
275 4 28.8 25.6 0 -13.3827
277 1 32 25.6 0 -11.828
279 1 35.2 25.6 0 -11.8556
281 1 38.4 25.6 0 -11.828
283 1 41.6 25.6 0 -11.8171
285 1 44.8 25.6 0 -11.7843
287 1 48 25.6 0 -11.7807
258 3 1.6 27.2 1.6 -11.199
289 1 0 28.8 0 -11.8308
260 3 4.8 27.2 1.6 -11.2691
291 4 3.2 28.8 0 -13.3261
262 3 8 27.2 1.6 -11.3041
293 4 6.4 28.8 0 -13.3822
264 3 11.2 27.2 1.6 -11.2381
295 1 9.6 28.8 0 -11.8415
266 3 14.4 27.2 1.6 -11.2048
297 1 12.8 28.8 0 -11.812
268 2 17.6 27.2 1.6 -9.74694
299 1 16 28.8 0 -11.7964
270 3 20.8 27.2 1.6 -11.2703
301 1 19.2 28.8 0 -11.7961
272 3 24 27.2 1.6 -11.2712
303 1 22.4 28.8 0 -11.8415
305 1 25.6 28.8 0 -11.8554
274 3 27.2 27.2 1.6 -11.3383
307 1 28.8 28.8 0 -11.8554
276 3 30.4 27.2 1.6 -11.2756
309 1 32 28.8 0 -11.8121
278 3 33.6 27.2 1.6 -11.2417
311 1 35.2 28.8 0 -11.7807
280 3 36.8 27.2 1.6 -11.24
313 1 38.4 28.8 0 -11.7583
282 2 40 27.2 1.6 -9.83586
315 4 41.6 28.8 0 -13.329
284 3 43.2 27.2 1.6 -11.2319
317 1 44.8 28.8 0 -11.8413
286 3 46.4 27.2 1.6 -11.2764
319 1 48 28.8 0 -11.8419
288 3 49.6 27.2 1.6 -11.3078
290 2 1.6 30.4 1.6 -9.81263
321 4 0 32 0 -13.352
292 2 4.8 30.4 1.6 -9.81128
323 4 3.2 32 0 -13.323
294 3 8 30.4 1.6 -11.2688
325 4 6.4 32 0 -13.3033
296 3 11.2 30.4 1.6 -11.2761
327 1 9.6 32 0 -11.8279
298 3 14.4 30.4 1.6 -11.2733
329 1 12.8 32 0 -11.8697
300 2 17.6 30.4 1.6 -9.74098
331 4 16 32 0 -13.3394
302 3 20.8 30.4 1.6 -11.1645
333 1 19.2 32 0 -11.8282
304 3 24 30.4 1.6 -11.2761
335 1 22.4 32 0 -11.8413
337 1 25.6 32 0 -11.8573
306 3 27.2 30.4 1.6 -11.2729
339 1 28.8 32 0 -11.8018
308 3 30.4 30.4 1.6 -11.2737
341 1 32 32 0 -11.7445
310 3 33.6 30.4 1.6 -11.2349
343 1 35.2 32 0 -11.7296
312 3 36.8 30.4 1.6 -11.2338
345 4 38.4 32 0 -13.2609
314 2 40 30.4 1.6 -9.81676
347 4 41.6 32 0 -13.323
316 3 43.2 30.4 1.6 -11.2946
349 1 44.8 32 0 -11.7118
318 3 46.4 30.4 1.6 -11.2663
351 1 48 32 0 -11.7948
320 3 49.6 30.4 1.6 -11.3361
322 3 1.6 33.6 1.6 -11.268
353 4 0 35.2 0 -13.4011
324 2 4.8 33.6 1.6 -9.71807
355 1 3.2 35.2 0 -11.8245
326 2 8 33.6 1.6 -9.77731
357 1 6.4 35.2 0 -11.7679
328 3 11.2 33.6 1.6 -11.1992
359 1 9.6 35.2 0 -11.8171
330 3 14.4 33.6 1.6 -11.2717
361 1 12.8 35.2 0 -11.7935
332 3 17.6 33.6 1.6 -11.2705
363 1 16 35.2 0 -11.8112
334 3 20.8 33.6 1.6 -11.2379
365 1 19.2 35.2 0 -11.8154
336 3 24 33.6 1.6 -11.3037
367 1 22.4 35.2 0 -11.83
369 4 25.6 35.2 0 -13.3517
338 2 27.2 33.6 1.6 -9.78845
371 4 28.8 35.2 0 -13.1897
340 2 30.4 33.6 1.6 -9.73221
373 4 32 35.2 0 -13.2595
342 2 33.6 33.6 1.6 -9.7939
375 2 35.2 35.2 0 -9.81251
344 2 36.8 33.6 1.6 -9.82175
377 4 38.4 35.2 0 -13.3158
346 2 40 33.6 1.6 -9.84438
379 2 41.6 35.2 0 -9.84097
348 4 43.2 33.6 1.6 -13.2
381 4 44.8 35.2 0 -13.1905
350 2 46.4 33.6 1.6 -9.75729
383 4 48 35.2 0 -13.3174
352 3 49.6 33.6 1.6 -11.3011
354 3 1.6 36.8 1.6 -11.2608
385 4 0 38.4 0 -13.3653
356 2 4.8 36.8 1.6 -9.7247
387 4 3.2 38.4 0 -13.3281
358 3 8 36.8 1.6 -11.1997
389 1 6.4 38.4 0 -11.7957
360 2 11.2 36.8 1.6 -9.75343
391 4 9.6 38.4 0 -13.3001
362 2 14.4 36.8 1.6 -9.72607
393 1 12.8 38.4 0 -11.6701
364 2 17.6 36.8 1.6 -9.81594
395 1 16 38.4 0 -11.7161
366 2 20.8 36.8 1.6 -9.8395
397 4 19.2 38.4 0 -13.2995
368 2 24 36.8 1.6 -9.88696
399 4 22.4 38.4 0 -13.2976
401 2 25.6 38.4 0 -9.83675
370 4 27.2 36.8 1.6 -13.2035
403 2 28.8 38.4 0 -9.7922
372 4 30.4 36.8 1.6 -13.2599
405 3 32 38.4 0 -11.2316
374 4 33.6 36.8 1.6 -13.2933
407 3 35.2 38.4 0 -11.267
376 4 36.8 36.8 1.6 -13.2953
409 3 38.4 38.4 0 -11.2685
378 4 40 36.8 1.6 -13.3531
411 3 41.6 38.4 0 -11.3584
380 2 43.2 36.8 1.6 -9.81901
413 4 44.8 38.4 0 -13.3469
382 2 46.4 36.8 1.6 -9.8187
415 4 48 38.4 0 -13.3405
384 2 49.6 36.8 1.6 -9.83892
386 2 1.6 40 1.6 -9.82337
417 4 0 41.6 0 -13.3225
388 4 4.8 40 1.6 -13.2102
419 1 3.2 41.6 0 -11.7302
390 3 8 40 1.6 -11.115
421 4 6.4 41.6 0 -13.2485
392 2 11.2 40 1.6 -9.73675
423 1 9.6 41.6 0 -11.6782
394 4 14.4 40 1.6 -13.2083
425 2 12.8 41.6 0 -9.79309
396 2 17.6 40 1.6 -9.83547
427 2 16 41.6 0 -9.83993
398 1 20.8 40 1.6 -11.7224
429 2 19.2 41.6 0 -9.78295
400 2 24 40 1.6 -9.81114
431 2 22.4 41.6 0 -9.73846
433 2 25.6 41.6 0 -9.84505
402 4 27.2 40 1.6 -13.3403
435 2 28.8 41.6 0 -9.81098
404 1 30.4 40 1.6 -11.8159
437 3 32 41.6 0 -11.2397
406 1 33.6 40 1.6 -11.8274
439 3 35.2 41.6 0 -11.242
408 1 36.8 40 1.6 -11.8157
441 3 38.4 41.6 0 -11.242
410 1 40 40 1.6 -11.8563
443 3 41.6 41.6 0 -11.2362
412 4 43.2 40 1.6 -13.3809
445 2 44.8 41.6 0 -9.84222
414 2 46.4 40 1.6 -9.83882
447 2 48 41.6 0 -9.8619
416 2 49.6 40 1.6 -9.82047
418 2 1.6 43.2 1.6 -9.82194
449 2 0 44.8 0 -9.76227
420 3 4.8 43.2 1.6 -11.1673
451 4 3.2 44.8 0 -13.2568
422 4 8 43.2 1.6 -13.2214
453 4 6.4 44.8 0 -13.2895
424 4 11.2 43.2 1.6 -13.2802
455 2 9.6 44.8 0 -9.7924
426 4 14.4 43.2 1.6 -13.3458
457 3 12.8 44.8 0 -11.293
428 4 17.6 43.2 1.6 -13.3263
459 3 16 44.8 0 -11.3022
430 1 20.8 43.2 1.6 -11.7304
461 2 19.2 44.8 0 -9.75748
432 4 24 43.2 1.6 -13.3179
463 4 22.4 44.8 0 -13.1622
465 2 25.6 44.8 0 -9.72213
434 4 27.2 43.2 1.6 -13.3499
467 3 28.8 44.8 0 -11.2357
436 4 30.4 43.2 1.6 -13.3609
469 3 32 44.8 0 -11.2756
438 1 33.6 43.2 1.6 -11.8698
471 3 35.2 44.8 0 -11.2756
440 1 36.8 43.2 1.6 -11.8413
473 3 38.4 44.8 0 -11.2753
442 1 40 43.2 1.6 -11.8555
475 3 41.6 44.8 0 -11.2426
444 1 43.2 43.2 1.6 -11.7866
477 3 44.8 44.8 0 -11.2317
446 4 46.4 43.2 1.6 -13.3166
479 3 48 44.8 0 -11.3324
448 4 49.6 43.2 1.6 -13.2982
450 4 1.6 46.4 1.6 -13.2717
481 3 0 48 0 -11.2029
452 4 4.8 46.4 1.6 -13.3047
483 2 3.2 48 0 -9.78177
454 4 8 46.4 1.6 -13.2895
485 3 6.4 48 0 -11.1804
456 4 11.2 46.4 1.6 -13.352
487 2 9.6 48 0 -9.8672
458 1 14.4 46.4 1.6 -11.8432
489 3 12.8 48 0 -11.2364
460 1 17.6 46.4 1.6 -11.8295
491 3 16 48 0 -11.2397
462 4 20.8 46.4 1.6 -13.2275
493 2 19.2 48 0 -9.77529
464 1 24 46.4 1.6 -11.7299
495 3 22.4 48 0 -11.0797
497 2 25.6 48 0 -9.7411
466 1 27.2 46.4 1.6 -11.8121
499 3 28.8 48 0 -11.2394
468 1 30.4 46.4 1.6 -11.8556
501 3 32 48 0 -11.242
470 1 33.6 46.4 1.6 -11.8414
503 3 35.2 48 0 -11.2354
472 1 36.8 46.4 1.6 -11.8556
505 3 38.4 48 0 -11.3073
474 1 40 46.4 1.6 -11.8555
507 3 41.6 48 0 -11.2033
476 1 43.2 46.4 1.6 -11.8171
509 2 44.8 48 0 -9.7689
478 4 46.4 46.4 1.6 -13.3571
511 3 48 48 0 -11.2394
480 1 49.6 46.4 1.6 -11.7976
482 1 1.6 49.6 1.6 -11.828
484 1 4.8 49.6 1.6 -11.772
486 4 8 49.6 1.6 -13.2963
488 1 11.2 49.6 1.6 -11.8307
490 1 14.4 49.6 1.6 -11.8556
492 4 17.6 49.6 1.6 -13.3399
494 1 20.8 49.6 1.6 -11.7851
496 1 24 49.6 1.6 -11.7578
498 4 27.2 49.6 1.6 -13.3365
500 1 30.4 49.6 1.6 -11.8557
502 1 33.6 49.6 1.6 -11.8123
504 1 36.8 49.6 1.6 -11.8281
506 1 40 49.6 1.6 -11.8415
508 1 43.2 49.6 1.6 -11.8122
510 1 46.4 49.6 1.6 -11.8282
512 1 49.6 49.6 1.6 -11.8415
513 3 0 0 3.2 -11.2417
514 1 1.6 1.6 4.8 -11.8121
515 3 3.2 0 3.2 -11.2402
516 1 4.8 1.6 4.8 -11.829
517 2 6.4 0 3.2 -9.81152
518 4 8 1.6 4.8 -13.35
519 3 9.6 0 3.2 -11.2665
520 1 11.2 1.6 4.8 -11.8113
521 3 12.8 0 3.2 -11.2759
522 1 14.4 1.6 4.8 -11.8416
523 3 16 0 3.2 -11.2753
524 1 17.6 1.6 4.8 -11.8416
525 3 19.2 0 3.2 -11.2381
526 1 20.8 1.6 4.8 -11.812
527 2 22.4 0 3.2 -9.71232
528 1 24 1.6 4.8 -11.7985
529 2 25.6 0 3.2 -9.80723
530 1 27.2 1.6 4.8 -11.7869
531 3 28.8 0 3.2 -11.2359
532 1 30.4 1.6 4.8 -11.6826
533 3 32 0 3.2 -11.2048
534 1 33.6 1.6 4.8 -11.7547
535 3 35.2 0 3.2 -11.2039
536 1 36.8 1.6 4.8 -11.8278
537 3 38.4 0 3.2 -11.2417
538 1 40 1.6 4.8 -11.8415
539 3 41.6 0 3.2 -11.242
540 1 43.2 1.6 4.8 -11.8558
541 3 44.8 0 3.2 -11.2423
542 1 46.4 1.6 4.8 -11.8413
543 3 48 0 3.2 -11.2414
544 1 49.6 1.6 4.8 -11.8558
545 3 0 3.2 3.2 -11.2759
546 1 1.6 4.8 4.8 -11.8393
547 3 3.2 3.2 3.2 -11.2378
548 1 4.8 4.8 4.8 -11.839
549 3 6.4 3.2 3.2 -11.2701
550 4 8 4.8 4.8 -13.2947
551 2 9.6 3.2 3.2 -9.74664
552 1 11.2 4.8 4.8 -11.7289
553 3 12.8 3.2 3.2 -11.2042
554 1 14.4 4.8 4.8 -11.7985
555 3 16 3.2 3.2 -11.242
556 1 17.6 4.8 4.8 -11.7982
557 3 19.2 3.2 3.2 -11.242
558 1 20.8 4.8 4.8 -11.8141
559 3 22.4 3.2 3.2 -11.2397
560 1 24 4.8 4.8 -11.7979
561 3 25.6 3.2 3.2 -11.24
562 1 27.2 4.8 4.8 -11.8171
563 3 28.8 3.2 3.2 -11.2051
564 1 30.4 4.8 4.8 -11.706
565 3 32 3.2 3.2 -11.1597
566 4 33.6 4.8 4.8 -13.2597
567 3 35.2 3.2 3.2 -11.3344
568 4 36.8 4.8 4.8 -13.351
569 3 38.4 3.2 3.2 -11.3076
570 1 40 4.8 4.8 -11.8436
571 3 41.6 3.2 3.2 -11.2033
572 1 43.2 4.8 4.8 -11.8554
573 3 44.8 3.2 3.2 -11.2417
574 1 46.4 4.8 4.8 -11.8695
575 3 48 3.2 3.2 -11.2753
576 4 49.6 4.8 4.8 -13.3839
577 3 0 6.4 3.2 -11.3329
578 4 1.6 8 4.8 -13.4225
579 3 3.2 6.4 3.2 -11.3385
580 4 4.8 8 4.8 -13.3761
581 3 6.4 6.4 3.2 -11.3367
582 4 8 8 4.8 -13.3444
583 2 9.6 6.4 3.2 -9.77733
584 1 11.2 8 4.8 -11.7185
585 3 12.8 6.4 3.2 -11.1623
586 4 14.4 8 4.8 -13.2736
587 3 16 6.4 3.2 -11.2363
588 4 17.6 8 4.8 -13.3336
589 3 19.2 6.4 3.2 -11.2741
590 1 20.8 8 4.8 -11.7837
591 3 22.4 6.4 3.2 -11.2384
592 1 24 8 4.8 -11.7633
593 3 25.6 6.4 3.2 -11.24
594 4 27.2 8 4.8 -13.3027
595 3 28.8 6.4 3.2 -11.2392
596 1 30.4 8 4.8 -11.7379
597 2 32 6.4 3.2 -9.71724
598 1 33.6 8 4.8 -11.6502
599 3 35.2 6.4 3.2 -11.2229
600 1 36.8 8 4.8 -11.7148
601 3 38.4 6.4 3.2 -11.3055
602 4 40 8 4.8 -13.3589
603 3 41.6 6.4 3.2 -11.3078
604 4 43.2 8 4.8 -13.3532
605 3 44.8 6.4 3.2 -11.2397
606 1 46.4 8 4.8 -11.7794
607 3 48 6.4 3.2 -11.272
608 4 49.6 8 4.8 -13.3136
609 3 0 9.6 3.2 -11.3324
610 4 1.6 11.2 4.8 -13.2516
611 3 3.2 9.6 3.2 -11.2632
612 1 4.8 11.2 4.8 -11.6895
613 3 6.4 9.6 3.2 -11.2636
614 1 8 11.2 4.8 -11.7287
615 3 9.6 9.6 3.2 -11.1508
616 1 11.2 11.2 4.8 -11.6665
617 2 12.8 9.6 3.2 -9.75241
618 4 14.4 11.2 4.8 -13.2632
619 3 16 9.6 3.2 -11.2209
620 4 17.6 11.2 4.8 -13.3168
621 3 19.2 9.6 3.2 -11.3617
622 4 20.8 11.2 4.8 -13.3703
623 3 22.4 9.6 3.2 -11.3355
624 4 24 11.2 4.8 -13.2951
625 3 25.6 9.6 3.2 -11.2357
626 4 27.2 11.2 4.8 -13.3075
627 3 28.8 9.6 3.2 -11.2699
628 1 30.4 11.2 4.8 -11.7265
629 2 32 9.6 3.2 -9.65707
630 1 33.6 11.2 4.8 -11.6388
631 2 35.2 9.6 3.2 -9.62248
632 1 36.8 11.2 4.8 -11.6979
633 3 38.4 9.6 3.2 -11.2363
634 1 40 11.2 4.8 -11.7917
635 3 41.6 9.6 3.2 -11.2971
636 4 43.2 11.2 4.8 -13.348
637 2 44.8 9.6 3.2 -9.86434
638 2 46.4 11.2 4.8 -9.80139
639 2 48 9.6 3.2 -9.76141
640 4 49.6 11.2 4.8 -13.2844
641 3 0 12.8 3.2 -11.2345
642 4 1.6 14.4 4.8 -13.3244
643 4 3.2 12.8 3.2 -13.257
644 2 4.8 14.4 4.8 -9.84825
645 2 6.4 12.8 3.2 -9.81702
646 2 8 14.4 4.8 -9.80949
647 2 9.6 12.8 3.2 -9.78967
648 4 11.2 14.4 4.8 -13.3167
649 2 12.8 12.8 3.2 -9.78574
650 2 14.4 14.4 4.8 -9.82765
651 4 16 12.8 3.2 -13.2443
652 4 17.6 14.4 4.8 -13.2712
653 3 19.2 12.8 3.2 -11.2617
654 1 20.8 14.4 4.8 -11.7874
655 3 22.4 12.8 3.2 -11.2603
656 4 24 14.4 4.8 -13.3152
657 2 25.6 12.8 3.2 -9.81717
658 1 27.2 14.4 4.8 -11.7056
659 3 28.8 12.8 3.2 -11.2632
660 4 30.4 14.4 4.8 -13.2614
661 2 32 12.8 3.2 -9.78954
662 4 33.6 14.4 4.8 -13.2259
663 2 35.2 12.8 3.2 -9.76355
664 2 36.8 14.4 4.8 -9.78718
665 2 38.4 12.8 3.2 -9.76391
666 4 40 14.4 4.8 -13.2914
667 2 41.6 12.8 3.2 -9.84647
668 2 43.2 14.4 4.8 -9.81049
669 3 44.8 12.8 3.2 -11.2607
670 3 46.4 14.4 4.8 -11.3125
671 4 48 12.8 3.2 -13.3744
672 3 49.6 14.4 4.8 -11.2484
673 1 0 16 3.2 -11.7902
674 2 1.6 17.6 4.8 -9.72594
675 4 3.2 16 3.2 -13.2916
676 2 4.8 17.6 4.8 -9.80697
677 4 6.4 16 3.2 -13.3391
678 4 8 17.6 4.8 -13.3394
679 4 9.6 16 3.2 -13.3736
680 2 11.2 17.6 4.8 -9.86335
681 2 12.8 16 3.2 -9.83599
682 4 14.4 17.6 4.8 -13.1593
683 4 16 16 3.2 -13.2172
684 4 17.6 17.6 4.8 -13.1982
685 3 19.2 16 3.2 -11.1864
686 1 20.8 17.6 4.8 -11.7561
687 2 22.4 16 3.2 -9.84297
688 2 24 17.6 4.8 -9.83237
689 2 25.6 16 3.2 -9.78991
690 4 27.2 17.6 4.8 -13.2964
691 2 28.8 16 3.2 -9.86646
692 2 30.4 17.6 4.8 -9.84333
693 2 32 16 3.2 -9.81119
694 2 33.6 17.6 4.8 -9.72722
695 4 35.2 16 3.2 -13.2272
696 2 36.8 17.6 4.8 -9.78268
697 4 38.4 16 3.2 -13.2631
698 3 40 17.6 4.8 -11.2506
699 4 41.6 16 3.2 -13.3161
700 2 43.2 17.6 4.8 -9.87015
701 4 44.8 16 3.2 -13.3333
702 2 46.4 17.6 4.8 -9.84575
703 4 48 16 3.2 -13.2931
704 3 49.6 17.6 4.8 -11.2703
705 1 0 19.2 3.2 -11.7342
706 3 1.6 20.8 4.8 -11.1207
707 1 3.2 19.2 3.2 -11.7492
708 4 4.8 20.8 4.8 -13.2509
709 4 6.4 19.2 3.2 -13.2749
710 2 8 20.8 4.8 -9.7628
711 4 9.6 19.2 3.2 -13.2924
712 2 11.2 20.8 4.8 -9.7883
713 4 12.8 19.2 3.2 -13.2256
714 2 14.4 20.8 4.8 -9.70009
715 1 16 19.2 3.2 -11.5918
716 4 17.6 20.8 4.8 -13.2529
717 4 19.2 19.2 3.2 -13.3317
718 2 20.8 20.8 4.8 -9.75801
719 4 22.4 19.2 3.2 -13.2646
720 2 24 20.8 4.8 -9.8376
721 1 25.6 19.2 3.2 -11.7561
722 3 27.2 20.8 4.8 -11.2947
723 4 28.8 19.2 3.2 -13.3258
724 3 30.4 20.8 4.8 -11.2695
725 1 32 19.2 3.2 -11.7908
726 3 33.6 20.8 4.8 -11.239
727 1 35.2 19.2 3.2 -11.7517
728 3 36.8 20.8 4.8 -11.2332
729 1 38.4 19.2 3.2 -11.8008
730 2 40 20.8 4.8 -9.86838
731 4 41.6 19.2 3.2 -13.3518
732 2 43.2 20.8 4.8 -9.84287
733 1 44.8 19.2 3.2 -11.7906
734 3 46.4 20.8 4.8 -11.2662
735 4 48 19.2 3.2 -13.3309
736 3 49.6 20.8 4.8 -11.2722
737 1 0 22.4 3.2 -11.7682
738 3 1.6 24 4.8 -11.2013
739 4 3.2 22.4 3.2 -13.2573
740 3 4.8 24 4.8 -11.2013
741 1 6.4 22.4 3.2 -11.7445
742 3 8 24 4.8 -11.2365
743 1 9.6 22.4 3.2 -11.785
744 3 11.2 24 4.8 -11.1979
745 1 12.8 22.4 3.2 -11.7597
746 2 14.4 24 4.8 -9.75721
747 1 16 22.4 3.2 -11.7161
748 2 17.6 24 4.8 -9.76643
749 4 19.2 22.4 3.2 -13.3431
750 4 20.8 24 4.8 -13.2525
751 1 22.4 22.4 3.2 -11.7573
752 3 24 24 4.8 -11.1847
753 1 25.6 22.4 3.2 -11.8081
754 3 27.2 24 4.8 -11.3685
755 1 28.8 22.4 3.2 -11.8837
756 3 30.4 24 4.8 -11.2759
757 1 32 22.4 3.2 -11.8554
758 3 33.6 24 4.8 -11.2394
759 4 35.2 22.4 3.2 -13.3394
760 2 36.8 24 4.8 -9.80722
761 1 38.4 22.4 3.2 -11.8473
762 3 40 24 4.8 -11.3251
763 4 41.6 22.4 3.2 -13.3532
764 3 43.2 24 4.8 -11.2596
765 1 44.8 22.4 3.2 -11.8169
766 3 46.4 24 4.8 -11.2767
767 1 48 22.4 3.2 -11.8281
768 3 49.6 24 4.8 -11.2423
769 1 0 25.6 3.2 -11.7998
771 1 3.2 25.6 3.2 -11.7697
773 1 6.4 25.6 3.2 -11.8093
775 4 9.6 25.6 3.2 -13.3399
777 1 12.8 25.6 3.2 -11.8258
779 1 16 25.6 3.2 -11.7457
781 2 19.2 25.6 3.2 -9.76591
783 1 22.4 25.6 3.2 -11.7893
785 4 25.6 25.6 3.2 -13.3795
787 1 28.8 25.6 3.2 -11.8694
789 1 32 25.6 3.2 -11.8415
791 1 35.2 25.6 3.2 -11.8439
793 4 38.4 25.6 3.2 -13.3339
795 4 41.6 25.6 3.2 -13.3771
797 1 44.8 25.6 3.2 -11.8015
799 1 48 25.6 3.2 -11.8556
770 2 1.6 27.2 4.8 -9.80169
801 4 0 28.8 3.2 -13.3311
772 3 4.8 27.2 4.8 -11.2733
803 1 3.2 28.8 3.2 -11.8173
774 3 8 27.2 4.8 -11.3091
805 4 6.4 28.8 3.2 -13.3604
776 3 11.2 27.2 4.8 -11.2726
807 1 9.6 28.8 3.2 -11.8695
778 3 14.4 27.2 4.8 -11.2316
809 1 12.8 28.8 3.2 -11.8696
780 4 17.6 27.2 4.8 -13.1731
811 1 16 28.8 3.2 -11.734
782 2 20.8 27.2 4.8 -9.73441
813 1 19.2 28.8 3.2 -11.7175
784 2 24 27.2 4.8 -9.77745
815 1 22.4 28.8 3.2 -11.7501
817 1 25.6 28.8 3.2 -11.842
786 3 27.2 27.2 4.8 -11.2734
819 1 28.8 28.8 3.2 -11.8553
788 3 30.4 27.2 4.8 -11.2033
821 1 32 28.8 3.2 -11.8555
790 3 33.6 27.2 4.8 -11.2764
823 1 35.2 28.8 3.2 -11.8694
792 3 36.8 27.2 4.8 -11.1975
825 1 38.4 28.8 3.2 -11.7717
794 3 40 27.2 4.8 -11.2598
827 4 41.6 28.8 3.2 -13.3212
796 2 43.2 27.2 4.8 -9.83884
829 1 44.8 28.8 3.2 -11.8434
798 3 46.4 27.2 4.8 -11.3028
831 4 48 28.8 3.2 -13.424
800 3 49.6 27.2 4.8 -11.3023
802 3 1.6 30.4 4.8 -11.2374
833 1 0 32 3.2 -11.8569
804 3 4.8 30.4 4.8 -11.2736
835 1 3.2 32 3.2 -11.7698
806 3 8 30.4 4.8 -11.2761
837 1 6.4 32 3.2 -11.7851
808 3 11.2 30.4 4.8 -11.2733
839 1 9.6 32 3.2 -11.8173
810 3 14.4 30.4 4.8 -11.3043
841 4 12.8 32 3.2 -13.3091
812 3 17.6 30.4 4.8 -11.1917
843 1 16 32 3.2 -11.8282
814 2 20.8 30.4 4.8 -9.74781
845 1 19.2 32 3.2 -11.7847
816 3 24 30.4 4.8 -11.1589
847 1 22.4 32 3.2 -11.8093
849 4 25.6 32 3.2 -13.3595
818 3 27.2 30.4 4.8 -11.2313
851 4 28.8 32 3.2 -13.3193
820 3 30.4 30.4 4.8 -11.3065
853 4 32 32 3.2 -13.3257
822 3 33.6 30.4 4.8 -11.3364
855 4 35.2 32 3.2 -13.3218
824 3 36.8 30.4 4.8 -11.2242
857 4 38.4 32 3.2 -13.3247
826 4 40 30.4 4.8 -13.2824
859 2 41.6 32 3.2 -9.80076
828 2 43.2 30.4 4.8 -9.82099
861 4 44.8 32 3.2 -13.2904
830 3 46.4 30.4 4.8 -11.3921
863 4 48 32 3.2 -13.3788
832 3 49.6 30.4 4.8 -11.3689
834 3 1.6 33.6 4.8 -11.2402
865 1 0 35.2 3.2 -11.8149
836 3 4.8 33.6 4.8 -11.1651
867 1 3.2 35.2 3.2 -11.7568
838 3 8 33.6 4.8 -11.2023
869 1 6.4 35.2 3.2 -11.7349
840 2 11.2 33.6 4.8 -9.78224
871 4 9.6 35.2 3.2 -13.2561
842 2 14.4 33.6 4.8 -9.84099
873 1 12.8 35.2 3.2 -11.7504
844 3 17.6 33.6 4.8 -11.2289
875 4 16 35.2 3.2 -13.3341
846 2 20.8 33.6 4.8 -9.78354
877 4 19.2 35.2 3.2 -13.2998
848 3 24 33.6 4.8 -11.2309
879 4 22.4 35.2 3.2 -13.3324
881 4 25.6 35.2 3.2 -13.2457
850 2 27.2 33.6 4.8 -9.79101
883 1 28.8 35.2 3.2 -11.6666
852 2 30.4 33.6 4.8 -9.84618
885 4 32 35.2 3.2 -13.2597
854 2 33.6 33.6 4.8 -9.7942
887 4 35.2 35.2 3.2 -13.2456
856 4 36.8 33.6 4.8 -13.283
889 2 38.4 35.2 3.2 -9.78853
858 2 40 33.6 4.8 -9.82015
891 4 41.6 35.2 3.2 -13.2792
860 4 43.2 33.6 4.8 -13.1626
893 1 44.8 35.2 3.2 -11.6839
862 3 46.4 33.6 4.8 -11.2334
895 1 48 35.2 3.2 -11.8017
864 3 49.6 33.6 4.8 -11.2732
866 2 1.6 36.8 4.8 -9.78551
897 1 0 38.4 3.2 -11.7691
868 2 4.8 36.8 4.8 -9.69121
899 2 3.2 38.4 3.2 -9.70251
870 3 8 36.8 4.8 -11.1627
901 1 6.4 38.4 3.2 -11.7195
872 2 11.2 36.8 4.8 -9.76223
903 1 9.6 38.4 3.2 -11.7422
874 2 14.4 36.8 4.8 -9.82831
905 4 12.8 38.4 3.2 -13.2293
876 4 17.6 36.8 4.8 -13.3781
907 2 16 38.4 3.2 -9.83851
878 2 20.8 36.8 4.8 -9.74576
909 2 19.2 38.4 3.2 -9.84467
880 4 24 36.8 4.8 -13.3658
911 3 22.4 38.4 3.2 -11.2787
913 2 25.6 38.4 3.2 -9.89291
882 4 27.2 36.8 4.8 -13.2759
915 2 28.8 38.4 3.2 -9.86616
884 3 30.4 36.8 4.8 -11.2547
917 3 32 38.4 3.2 -11.2543
886 4 33.6 36.8 4.8 -13.2952
919 2 35.2 38.4 3.2 -9.78895
888 4 36.8 36.8 4.8 -13.2481
921 2 38.4 38.4 3.2 -9.81804
890 4 40 36.8 4.8 -13.2858
923 3 41.6 38.4 3.2 -11.3105
892 2 43.2 36.8 4.8 -9.83576
925 2 44.8 38.4 3.2 -9.87622
894 3 46.4 36.8 4.8 -11.2596
927 4 48 38.4 3.2 -13.2927
896 3 49.6 36.8 4.8 -11.1943
898 2 1.6 40 4.8 -9.79516
929 2 0 41.6 3.2 -9.77587
900 2 4.8 40 4.8 -9.73892
931 1 3.2 41.6 3.2 -11.7429
902 2 8 40 4.8 -9.72766
933 4 6.4 41.6 3.2 -13.24
904 2 11.2 40 4.8 -9.78411
935 1 9.6 41.6 3.2 -11.6685
906 4 14.4 40 4.8 -13.283
937 2 12.8 41.6 3.2 -9.8174
908 4 17.6 40 4.8 -13.2936
939 2 16 41.6 3.2 -9.81917
910 1 20.8 40 4.8 -11.7619
941 2 19.2 41.6 3.2 -9.78321
912 1 24 40 4.8 -11.828
943 3 22.4 41.6 3.2 -11.229
945 3 25.6 41.6 3.2 -11.3623
914 4 27.2 40 4.8 -13.396
947 3 28.8 41.6 3.2 -11.3317
916 4 30.4 40 4.8 -13.411
949 3 32 41.6 3.2 -11.3424
918 1 33.6 40 4.8 -11.7839
951 3 35.2 41.6 3.2 -11.2736
920 4 36.8 40 4.8 -13.2706
953 3 38.4 41.6 3.2 -11.2709
922 4 40 40 4.8 -13.3211
955 3 41.6 41.6 3.2 -11.3021
924 4 43.2 40 4.8 -13.3759
957 2 44.8 41.6 3.2 -9.757
926 4 46.4 40 4.8 -13.2841
959 4 48 41.6 3.2 -13.2835
928 2 49.6 40 4.8 -9.81869
930 2 1.6 43.2 4.8 -9.864
961 4 0 44.8 3.2 -13.2803
932 2 4.8 43.2 4.8 -9.83518
963 2 3.2 44.8 3.2 -9.85557
934 4 8 43.2 4.8 -13.3105
965 2 6.4 44.8 3.2 -9.84099
936 2 11.2 43.2 4.8 -9.80869
967 3 9.6 44.8 3.2 -11.2388
938 4 14.4 43.2 4.8 -13.2687
969 2 12.8 44.8 3.2 -9.86704
940 1 17.6 43.2 4.8 -11.7905
971 3 16 44.8 3.2 -11.2716
942 1 20.8 43.2 4.8 -11.7838
973 3 19.2 44.8 3.2 -11.2387
944 1 24 43.2 4.8 -11.8256
975 3 22.4 44.8 3.2 -11.2013
977 3 25.6 44.8 3.2 -11.2737
946 1 27.2 43.2 4.8 -11.8693
979 3 28.8 44.8 3.2 -11.3076
948 1 30.4 43.2 4.8 -11.8834
981 3 32 44.8 3.2 -11.3086
950 4 33.6 43.2 4.8 -13.3628
983 3 35.2 44.8 3.2 -11.2756
952 1 36.8 43.2 4.8 -11.859
985 3 38.4 44.8 3.2 -11.2729
954 4 40 43.2 4.8 -13.3236
987 3 41.6 44.8 3.2 -11.2695
956 1 43.2 43.2 4.8 -11.7466
989 2 44.8 44.8 3.2 -9.80902
958 1 46.4 43.2 4.8 -11.6829
991 3 48 44.8 3.2 -11.1425
960 4 49.6 43.2 4.8 -13.2603
962 4 1.6 46.4 4.8 -13.3232
993 3 0 48 3.2 -11.199
964 4 4.8 46.4 4.8 -13.3155
995 3 3.2 48 3.2 -11.2282
966 4 8 46.4 4.8 -13.2803
997 4 6.4 48 3.2 -13.1984
968 4 11.2 46.4 4.8 -13.347
999 2 9.6 48 3.2 -9.84586
970 1 14.4 46.4 4.8 -11.7848
1001 3 12.8 48 3.2 -11.2707
972 1 17.6 46.4 4.8 -11.8412
1003 3 16 48 3.2 -11.2759
974 1 20.8 46.4 4.8 -11.8282
1005 3 19.2 48 3.2 -11.2376
976 1 24 46.4 4.8 -11.8121
1007 2 22.4 48 3.2 -9.74122
1009 3 25.6 48 3.2 -11.1956
978 1 27.2 46.4 4.8 -11.828
1011 3 28.8 48 3.2 -11.2717
980 1 30.4 46.4 4.8 -11.812
1013 3 32 48 3.2 -11.242
982 1 33.6 46.4 4.8 -11.8557
1015 3 35.2 48 3.2 -11.2417
984 1 36.8 46.4 4.8 -11.8278
1017 3 38.4 48 3.2 -11.2759
986 4 40 46.4 4.8 -13.3306
1019 3 41.6 48 3.2 -11.2737
988 4 43.2 46.4 4.8 -13.2698
1021 3 44.8 48 3.2 -11.196
990 4 46.4 46.4 4.8 -13.3062
1023 3 48 48 3.2 -11.3091
992 1 49.6 46.4 4.8 -11.7378
994 1 1.6 49.6 4.8 -11.828
996 1 4.8 49.6 4.8 -11.7538
998 4 8 49.6 4.8 -13.3082
1000 4 11.2 49.6 4.8 -13.3584
1002 1 14.4 49.6 4.8 -11.8556
1004 1 17.6 49.6 4.8 -11.8557
1006 1 20.8 49.6 4.8 -11.7941
1008 1 24 49.6 4.8 -11.7655
1010 4 27.2 49.6 4.8 -13.3302
1012 1 30.4 49.6 4.8 -11.7874
1014 1 33.6 49.6 4.8 -11.828
1016 1 36.8 49.6 4.8 -11.8556
1018 1 40 49.6 4.8 -11.8281
1020 1 43.2 49.6 4.8 -11.7659
1022 1 46.4 49.6 4.8 -11.8149
1024 1 49.6 49.6 4.8 -11.812
1025 3 0 0 6.4 -11.2042
1026 1 1.6 1.6 8 -11.8284
1027 3 3.2 0 6.4 -11.2402
1028 4 4.8 1.6 8 -13.3575
1029 3 6.4 0 6.4 -11.3292
1030 4 8 1.6 8 -13.3117
1031 3 9.6 0 6.4 -11.258
1032 1 11.2 1.6 8 -11.7368
1033 3 12.8 0 6.4 -11.239
1034 1 14.4 1.6 8 -11.7698
1035 3 16 0 6.4 -11.242
1036 1 17.6 1.6 8 -11.7652
1037 3 19.2 0 6.4 -11.2764
1038 1 20.8 1.6 8 -11.7769
1039 3 22.4 0 6.4 -11.2025
1040 1 24 1.6 8 -11.7684
1041 3 25.6 0 6.4 -11.2337
1042 4 27.2 1.6 8 -13.3219
1043 2 28.8 0 6.4 -9.75346
1044 1 30.4 1.6 8 -11.708
1045 2 32 0 6.4 -9.74716
1046 4 33.6 1.6 8 -13.2636
1047 3 35.2 0 6.4 -11.2324
1048 1 36.8 1.6 8 -11.7433
1049 3 38.4 0 6.4 -11.277
1050 1 40 1.6 8 -11.7921
1051 3 41.6 0 6.4 -11.2016
1052 4 43.2 1.6 8 -13.2761
1053 3 44.8 0 6.4 -11.1995
1054 1 46.4 1.6 8 -11.819
1055 3 48 0 6.4 -11.2403
1056 1 49.6 1.6 8 -11.8119
1057 3 0 3.2 6.4 -11.2376
1058 1 1.6 4.8 8 -11.8256
1059 2 3.2 3.2 6.4 -9.76879
1060 1 4.8 4.8 8 -11.8551
1061 3 6.4 3.2 6.4 -11.3006
1062 1 8 4.8 8 -11.789
1063 2 9.6 3.2 6.4 -9.78626
1064 4 11.2 4.8 8 -13.24
1065 3 12.8 3.2 6.4 -11.164
1066 1 14.4 4.8 8 -11.7438
1067 3 16 3.2 6.4 -11.1654
1068 1 17.6 4.8 8 -11.7399
1069 3 19.2 3.2 6.4 -11.2021
1070 2 20.8 4.8 8 -9.75639
1071 3 22.4 3.2 6.4 -11.2365
1072 4 24 4.8 8 -13.3857
1073 3 25.6 3.2 6.4 -11.2699
1074 4 27.2 4.8 8 -13.322
1075 2 28.8 3.2 6.4 -9.7138
1076 1 30.4 4.8 8 -11.6865
1077 4 32 3.2 6.4 -13.0645
1078 4 33.6 4.8 8 -13.2318
1079 2 35.2 3.2 6.4 -9.7874
1080 4 36.8 4.8 8 -13.2412
1081 3 38.4 3.2 6.4 -11.1585
1082 1 40 4.8 8 -11.7465
1083 3 41.6 3.2 6.4 -11.2408
1084 1 43.2 4.8 8 -11.8162
1085 3 44.8 3.2 6.4 -11.2748
1086 4 46.4 4.8 8 -13.3782
1087 3 48 3.2 6.4 -11.3091
1088 1 49.6 4.8 8 -11.8694
1089 3 0 6.4 6.4 -11.3359
1090 4 1.6 8 8 -13.3326
1091 3 3.2 6.4 6.4 -11.2997
1092 4 4.8 8 8 -13.3769
1093 3 6.4 6.4 6.4 -11.3327
1094 4 8 8 8 -13.3255
1095 2 9.6 6.4 6.4 -9.76032
1096 4 11.2 8 8 -13.2952
1097 2 12.8 6.4 6.4 -9.78616
1098 4 14.4 8 8 -13.3254
1099 2 16 6.4 6.4 -9.75806
1100 2 17.6 8 8 -9.82253
1101 2 19.2 6.4 6.4 -9.81857
1102 4 20.8 8 8 -13.3697
1103 2 22.4 6.4 6.4 -9.81162