ITEM: TIMESTEP
0
ITEM: NUMBER OF ATOMS
8192
ITEM: BOX BOUNDS pp pp pp
0.0000000000000000e+00 5.1200000000000003e+01
0.0000000000000000e+00 5.1200000000000003e+01
0.0000000000000000e+00 5.1200000000000003e+01
ITEM: ATOMS id type x y z c_eng
1 3 0 0 0 -11.2402
2 4 1.6 1.6 1.6 -13.3321
3 2 3.2 0 0 -9.69102
4 1 4.8 1.6 1.6 -11.7516
5 4 6.4 0 0 -13.1899
6 4 8 1.6 1.6 -13.3554
7 3 9.6 0 0 -11.2716
8 1 11.2 1.6 1.6 -11.8695
9 3 12.8 0 0 -11.242
10 1 14.4 1.6 1.6 -11.8555
11 3 16 0 0 -11.2423
12 1 17.6 1.6 1.6 -11.8555
13 3 19.2 0 0 -11.2039
14 1 20.8 1.6 1.6 -11.8259
15 3 22.4 0 0 -11.1645
16 1 24 1.6 1.6 -11.7509
17 3 25.6 0 0 -11.2387
18 1 27.2 1.6 1.6 -11.7205
19 3 28.8 0 0 -11.2381
20 1 30.4 1.6 1.6 -11.7966
21 3 32 0 0 -11.2423
22 1 33.6 1.6 1.6 -11.8122
23 3 35.2 0 0 -11.1642
24 1 36.8 1.6 1.6 -11.7941
25 3 38.4 0 0 -11.2387
26 1 40 1.6 1.6 -11.8121
27 3 41.6 0 0 -11.2761
28 1 43.2 1.6 1.6 -11.8121
29 3 44.8 0 0 -11.2736
30 1 46.4 1.6 1.6 -11.8418
31 3 48 0 0 -11.2364
32 1 49.6 1.6 1.6 -11.8554
33 3 0 3.2 0 -11.2729
34 4 1.6 4.8 1.6 -13.3994
35 2 3.2 3.2 0 -9.77951
36 1 4.8 4.8 1.6 -11.8019
37 3 6.4 3.2 0 -11.2277
38 4 8 4.8 1.6 -13.3193
39 3 9.6 3.2 0 -11.3348
40 4 11.2 4.8 1.6 -13.3813
41 3 12.8 3.2 0 -11.2705
42 4 14.4 4.8 1.6 -13.353
43 3 16 3.2 0 -11.2349
44 4 17.6 4.8 1.6 -13.2692
45 3 19.2 3.2 0 -11.2377
46 4 20.8 4.8 1.6 -13.358
47 3 22.4 3.2 0 -11.2764
48 1 24 4.8 1.6 -11.7938
49 3 25.6 3.2 0 -11.1645
50 1 27.2 4.8 1.6 -11.7351
51 2 28.8 3.2 0 -9.70671
52 1 30.4 4.8 1.6 -11.7527
53 3 32 3.2 0 -11.1658
54 1 33.6 4.8 1.6 -11.7828
55 2 35.2 3.2 0 -9.71405
56 1 36.8 4.8 1.6 -11.812
57 2 38.4 3.2 0 -9.74652
58 1 40 4.8 1.6 -11.8281
59 3 41.6 3.2 0 -11.2394
60 1 43.2 4.8 1.6 -11.8415
61 3 44.8 3.2 0 -11.2756
62 1 46.4 4.8 1.6 -11.8416
63 3 48 3.2 0 -11.2756
64 1 49.6 4.8 1.6 -11.8552
65 3 0 6.4 0 -11.3052
66 4 1.6 8 1.6 -13.3475
67 3 3.2 6.4 0 -11.2687
68 1 4.8 8 1.6 -11.7974
69 2 6.4 6.4 0 -9.78237
70 4 8 8 1.6 -13.2932
71 2 9.6 6.4 0 -9.8091
72 2 11.2 8 1.6 -9.8182
73 3 12.8 6.4 0 -11.2615
74 4 14.4 8 1.6 -13.3169
75 2 16 6.4 0 -9.72494
76 4 17.6 8 1.6 -13.312
77 4 19.2 6.4 0 -13.1474
78 4 20.8 8 1.6 -13.3501
79 3 22.4 6.4 0 -11.2374
80 1 24 8 1.6 -11.8144
81 3 25.6 6.4 0 -11.2722
82 4 27.2 8 1.6 -13.2675
83 3 28.8 6.4 0 -11.2358
84 1 30.4 8 1.6 -11.7748
85 3 32 6.4 0 -11.2048
86 1 33.6 8 1.6 -11.796
87 3 35.2 6.4 0 -11.2023
88 1 36.8 8 1.6 -11.8694
89 3 38.4 6.4 0 -11.2734
90 1 40 8 1.6 -11.8552
91 3 41.6 6.4 0 -11.3089
92 1 43.2 8 1.6 -11.8695
93 3 44.8 6.4 0 -11.2756
94 1 46.4 8 1.6 -11.8274
95 3 48 6.4 0 -11.2759
96 1 49.6 8 1.6 -11.834
97 2 0 9.6 0 -9.83764
98 1 1.6 11.2 1.6 -11.7158
99 3 3.2 9.6 0 -11.2699
100 4 4.8 11.2 1.6 -13.2966
101 3 6.4 9.6 0 -11.2225
102 4 8 11.2 1.6 -13.3424
103 2 9.6 9.6 0 -9.86986
104 4 11.2 11.2 1.6 -13.2798
105 2 12.8 9.6 0 -9.79394
106 4 14.4 11.2 1.6 -13.3508
107 2 16 9.6 0 -9.83995
108 4 17.6 11.2 1.6 -13.3982
109 3 19.2 9.6 0 -11.2626
110 4 20.8 11.2 1.6 -13.4193
111 3 22.4 9.6 0 -11.3047
112 4 24 11.2 1.6 -13.3306
113 3 25.6 9.6 0 -11.2335
114 1 27.2 11.2 1.6 -11.7906
115 2 28.8 9.6 0 -9.80856
116 4 30.4 11.2 1.6 -13.273
117 3 32 9.6 0 -11.2324
118 4 33.6 11.2 1.6 -13.3183
119 3 35.2 9.6 0 -11.3393
120 4 36.8 11.2 1.6 -13.3493
121 3 38.4 9.6 0 -11.27
122 4 40 11.2 1.6 -13.3567
123 3 41.6 9.6 0 -11.3069
124 4 43.2 11.2 1.6 -13.2727
125 3 44.8 9.6 0 -11.2327
126 4 46.4 11.2 1.6 -13.2928
127 3 48 9.6 0 -11.2664
128 4 49.6 11.2 1.6 -13.2864
129 3 0 12.8 0 -11.2407
130 4 1.6 14.4 1.6 -13.2509
131 2 3.2 12.8 0 -9.82148
132 2 4.8 14.4 1.6 -9.76662
133 2 6.4 12.8 0 -9.84384
134 4 8 14.4 1.6 -13.288
135 2 9.6 12.8 0 -9.81932
136 4 11.2 14.4 1.6 -13.2995
137 1 12.8 12.8 0 -11.6753
138 2 14.4 14.4 1.6 -9.78348
139 3 16 12.8 0 -11.2206
140 1 17.6 14.4 1.6 -11.7592
141 3 19.2 12.8 0 -11.193
142 1 20.8 14.4 1.6 -11.7426
143 2 22.4 12.8 0 -9.77246
144 1 24 14.4 1.6 -11.7279
145 3 25.6 12.8 0 -11.161
146 1 27.2 14.4 1.6 -11.7579
147 3 28.8 12.8 0 -11.1995
148 4 30.4 14.4 1.6 -13.2986
149 2 32 12.8 0 -9.84284
150 2 33.6 14.4 1.6 -9.78267
151 3 35.2 12.8 0 -11.2914
152 4 36.8 14.4 1.6 -13.3142
153 3 38.4 12.8 0 -11.3252
154 2 40 14.4 1.6 -9.84022
155 2 41.6 12.8 0 -9.76344
156 2 43.2 14.4 1.6 -9.81758
157 4 44.8 12.8 0 -13.2459
158 4 46.4 14.4 1.6 -13.3099
159 2 48 12.8 0 -9.86361
160 3 49.6 14.4 1.6 -11.2256
161 4 0 16 0 -13.3075
162 2 1.6 17.6 1.6 -9.69303
163 4 3.2 16 0 -13.2303
164 2 4.8 17.6 1.6 -9.73119
165 1 6.4 16 0 -11.6368
166 4 8 17.6 1.6 -13.204
167 4 9.6 16 0 -13.2873
168 3 11.2 17.6 1.6 -11.2485
169 4 12.8 16 0 -13.2548
170 3 14.4 17.6 1.6 -11.2934
171 4 16 16 0 -13.2898
172 2 17.6 17.6 1.6 -9.84773
173 2 19.2 16 0 -9.78606
174 2 20.8 17.6 1.6 -9.84104
175 2 22.4 16 0 -9.72472
176 2 24 17.6 1.6 -9.78904
177 4 25.6 16 0 -13.1923
178 2 27.2 17.6 1.6 -9.79107
179 2 28.8 16 0 -9.7902
180 4 30.4 17.6 1.6 -13.3153
181 2 32 16 0 -9.7651
182 2 33.6 17.6 1.6 -9.76301
183 4 35.2 16 0 -13.2191
184 4 36.8 17.6 1.6 -13.2073
185 4 38.4 16 0 -13.2137
186 2 40 17.6 1.6 -9.76522
187 4 41.6 16 0 -13.3023
188 2 43.2 17.6 1.6 -9.82
189 2 44.8 16 0 -9.82928
190 2 46.4 17.6 1.6 -9.81833
191 4 48 16 0 -13.3283
192 2 49.6 17.6 1.6 -9.78175
193 1 0 19.2 0 -11.84
194 3 1.6 20.8 1.6 -11.2392
195 1 3.2 19.2 0 -11.7391
196 3 4.8 20.8 1.6 -11.1624
197 1 6.4 19.2 0 -11.6323
198 2 8 20.8 1.6 -9.72316
199 4 9.6 19.2 0 -13.2386
200 2 11.2 20.8 1.6 -9.74722
201 1 12.8 19.2 0 -11.8298
202 3 14.4 20.8 1.6 -11.2344
203 4 16 19.2 0 -13.3201
204 3 17.6 20.8 1.6 -11.1926
205 1 19.2 19.2 0 -11.7169
206 3 20.8 20.8 1.6 -11.2648
207 1 22.4 19.2 0 -11.7624
208 3 24 20.8 1.6 -11.2002
209 1 25.6 19.2 0 -11.7169
210 3 27.2 20.8 1.6 -11.1984
211 4 28.8 19.2 0 -13.2974
212 3 30.4 20.8 1.6 -11.2685
213 4 32 19.2 0 -13.3014
214 2 33.6 20.8 1.6 -9.78025
215 1 35.2 19.2 0 -11.7212
216 3 36.8 20.8 1.6 -11.1974
217 4 38.4 19.2 0 -13.2695
218 2 40 20.8 1.6 -9.77884
219 4 41.6 19.2 0 -13.2939
220 3 43.2 20.8 1.6 -11.2369
221 4 44.8 19.2 0 -13.3567
222 3 46.4 20.8 1.6 -11.2734
223 4 48 19.2 0 -13.3315
224 3 49.6 20.8 1.6 -11.2348
225 4 0 22.4 0 -13.3615
226 3 1.6 24 1.6 -11.2726
227 1 3.2 22.4 0 -11.8
228 3 4.8 24 1.6 -11.2423
229 1 6.4 22.4 0 -11.7508
230 3 8 24 1.6 -11.2042
231 1 9.6 22.4 0 -11.7433
232 3 11.2 24 1.6 -11.201
233 1 12.8 22.4 0 -11.7699
234 3 14.4 24 1.6 -11.3051
235 1 16 22.4 0 -11.7721
236 3 17.6 24 1.6 -11.3373
237 1 19.2 22.4 0 -11.7337
238 3 20.8 24 1.6 -11.302
239 1 22.4 22.4 0 -11.8267
240 3 24 24 1.6 -11.3051
241 1 25.6 22.4 0 -11.7614
242 3 27.2 24 1.6 -11.2026
243 1 28.8 22.4 0 -11.7637
244 3 30.4 24 1.6 -11.2423
245 1 32 22.4 0 -11.8279
246 3 33.6 24 1.6 -11.2384
247 1 35.2 22.4 0 -11.8256
248 3 36.8 24 1.6 -11.339
249 1 38.4 22.4 0 -11.8418
250 3 40 24 1.6 -11.2687
251 1 41.6 22.4 0 -11.7978
252 3 43.2 24 1.6 -11.201
253 1 44.8 22.4 0 -11.8258
254 3 46.4 24 1.6 -11.242
255 1 48 22.4 0 -11.8696
256 3 49.6 24 1.6 -11.3073
257 4 0 25.6 0 -13.3626
259 1 3.2 25.6 0 -11.8281
261 1 6.4 25.6 0 -11.8416
263 1 9.6 25.6 0 -11.8418
265 4 12.8 25.6 0 -13.3057
267 4 16 25.6 0 -13.3441
269 4 19.2 25.6 0 -13.3772
271 4 22.4 25.6 0 -13.3977
273 4 25.6 25.6 0 -13.3242
275 1 28.8 25.6 0 -11.7704
277 1 32 25.6 0 -11.8281
279 4 35.2 25.6 0 -13.3566
281 4 38.4 25.6 0 -13.3819
283 1 41.6 25.6 0 -11.8017
285 1 44.8 25.6 0 -11.7841
287 1 48 25.6 0 -11.8556
258 3 1.6 27.2 1.6 -11.2729
289 1 0 28.8 0 -11.8555
260 3 4.8 27.2 1.6 -11.2394
291 1 3.2 28.8 0 -11.8281
262 3 8 27.2 1.6 -11.3073
293 1 6.4 28.8 0 -11.8259
264 3 11.2 27.2 1.6 -11.3362
295 4 9.6 28.8 0 -13.3833
266 3 14.4 27.2 1.6 -11.3319
297 1 12.8 28.8 0 -11.8548
268 3 17.6 27.2 1.6 -11.3321
299 1 16 28.8 0 -11.8551
270 3 20.8 27.2 1.6 -11.3296
301 1 19.2 28.8 0 -11.8831
272 3 24 27.2 1.6 -11.3278
303 4 22.4 28.8 0 -13.3731
305 4 25.6 28.8 0 -13.3064
274 2 27.2 27.2 1.6 -9.77475
307 1 28.8 28.8 0 -11.7849
276 3 30.4 27.2 1.6 -11.1648
309 1 32 28.8 0 -11.8132
278 3 33.6 27.2 1.6 -11.2355
311 4 35.2 28.8 0 -13.3779
280 3 36.8 27.2 1.6 -11.3265
313 4 38.4 28.8 0 -13.3466
282 2 40 27.2 1.6 -9.86908
315 4 41.6 28.8 0 -13.3009
284 2 43.2 27.2 1.6 -9.7888
317 1 44.8 28.8 0 -11.8044
286 3 46.4 27.2 1.6 -11.2693
319 1 48 28.8 0 -11.828
288 3 49.6 27.2 1.6 -11.3087
290 3 1.6 30.4 1.6 -11.2336
321 1 0 32 0 -11.8281
292 2 4.8 30.4 1.6 -9.79991
323 1 3.2 32 0 -11.8021
294 3 8 30.4 1.6 -11.2697
325 1 6.4 32 0 -11.812
296 3 11.2 30.4 1.6 -11.3044
327 1 9.6 32 0 -11.8697
298 3 14.4 30.4 1.6 -11.2701
329 1 12.8 32 0 -11.8554
300 3 17.6 30.4 1.6 -11.3397
331 4 16 32 0 -13.3833
302 3 20.8 30.4 1.6 -11.3694
333 1 19.2 32 0 -11.8693
304 3 24 30.4 1.6 -11.265
335 1 22.4 32 0 -11.8106
337 1 25.6 32 0 -11.7974
306 3 27.2 30.4 1.6 -11.2013
339 1 28.8 32 0 -11.839
308 2 30.4 30.4 1.6 -9.70683
341 1 32 32 0 -11.7836
310 3 33.6 30.4 1.6 -11.2339
343 4 35.2 32 0 -13.3765
312 3 36.8 30.4 1.6 -11.3244
345 2 38.4 32 0 -9.80001
314 4 40 30.4 1.6 -13.3118
347 2 41.6 32 0 -9.80387
316 2 43.2 30.4 1.6 -9.79609
349 1 44.8 32 0 -11.7624
318 2 46.4 30.4 1.6 -9.80483
351 1 48 32 0 -11.7804
320 3 49.6 30.4 1.6 -11.2382
322 2 1.6 33.6 1.6 -9.77849
353 1 0 35.2 0 -11.8136
324 3 4.8 33.6 1.6 -11.2023
355 1 3.2 35.2 0 -11.7801
326 3 8 33.6 1.6 -11.2042
357 1 6.4 35.2 0 -11.8137
328 3 11.2 33.6 1.6 -11.2423
359 1 9.6 35.2 0 -11.7982
330 3 14.4 33.6 1.6 -11.3097
361 1 12.8 35.2 0 -11.8554
332 3 17.6 33.6 1.6 -11.3376
363 1 16 35.2 0 -11.8565
334 3 20.8 33.6 1.6 -11.2708
365 4 19.2 35.2 0 -13.3337
336 3 24 33.6 1.6 -11.2002
367 1 22.4 35.2 0 -11.7413
369 1 25.6 35.2 0 -11.7731
338 3 27.2 33.6 1.6 -11.3068
371 4 28.8 35.2 0 -13.3968
340 3 30.4 33.6 1.6 -11.2648
373 1 32 35.2 0 -11.7842
342 2 33.6 33.6 1.6 -9.79363
375 2 35.2 35.2 0 -9.76051
344 2 36.8 33.6 1.6 -9.84292
377 4 38.4 35.2 0 -13.1985
346 4 40 33.6 1.6 -13.2276
379 2 41.6 35.2 0 -9.69571
348 2 43.2 33.6 1.6 -9.79364
381 4 44.8 35.2 0 -13.2694
350 2 46.4 33.6 1.6 -9.75109
383 1 48 35.2 0 -11.8316
352 3 49.6 33.6 1.6 -11.1988
354 2 1.6 36.8 1.6 -9.78293
385 4 0 38.4 0 -13.2912
356 3 4.8 36.8 1.6 -11.2696
387 1 3.2 38.4 0 -11.8568
358 2 8 36.8 1.6 -9.78334
389 4 6.4 38.4 0 -13.3247
360 3 11.2 36.8 1.6 -11.2658
391 4 9.6 38.4 0 -13.2308
362 3 14.4 36.8 1.6 -11.299
393 4 12.8 38.4 0 -13.331
364 2 17.6 36.8 1.6 -9.84548
395 1 16 38.4 0 -11.8123
366 4 20.8 36.8 1.6 -13.2445
397 2 19.2 38.4 0 -9.80304
368 4 24 36.8 1.6 -13.2188
399 2 22.4 38.4 0 -9.84022
401 4 25.6 38.4 0 -13.3274
370 2 27.2 36.8 1.6 -9.83978
403 2 28.8 38.4 0 -9.83446
372 2 30.4 36.8 1.6 -9.84268
405 2 32 38.4 0 -9.75879
374 4 33.6 36.8 1.6 -13.2357
407 3 35.2 38.4 0 -11.236
376 4 36.8 36.8 1.6 -13.3083
409 3 38.4 38.4 0 -11.1621
378 1 40 36.8 1.6 -11.7012
411 2 41.6 38.4 0 -9.7838
380 4 43.2 36.8 1.6 -13.2229
413 4 44.8 38.4 0 -13.3398
382 3 46.4 36.8 1.6 -11.2871
415 4 48 38.4 0 -13.3494
384 3 49.6 36.8 1.6 -11.2688
386 2 1.6 40 1.6 -9.81782
417 4 0 41.6 0 -13.3118
388 3 4.8 40 1.6 -11.2576
419 4 3.2 41.6 0 -13.3261
390 2 8 40 1.6 -9.78964
421 1 6.4 41.6 0 -11.771
392 2 11.2 40 1.6 -9.81798
423 1 9.6 41.6 0 -11.678
394 2 14.4 40 1.6 -9.82077
425 4 12.8 41.6 0 -13.2877
396 4 17.6 40 1.6 -13.3024
427 2 16 41.6 0 -9.78269
398 4 20.8 40 1.6 -13.3405
429 4 19.2 41.6 0 -13.3133
400 4 24 40 1.6 -13.3117
431 3 22.4 41.6 0 -11.2856
433 3 25.6 41.6 0 -11.2635
402 4 27.2 40 1.6 -13.3044
435 3 28.8 41.6 0 -11.3067
404 1 30.4 40 1.6 -11.7553
437 3 32 41.6 0 -11.239
406 1 33.6 40 1.6 -11.7267
439 3 35.2 41.6 0 -11.2039
408 1 36.8 40 1.6 -11.7962
441 3 38.4 41.6 0 -11.242
410 1 40 40 1.6 -11.7981
443 3 41.6 41.6 0 -11.2358
412 4 43.2 40 1.6 -13.2995
445 4 44.8 41.6 0 -13.3184
414 2 46.4 40 1.6 -9.85817
447 2 48 41.6 0 -9.89419
416 4 49.6 40 1.6 -13.2803
418 2 1.6 43.2 1.6 -9.79185
449 2 0 44.8 0 -9.81832
420 2 4.8 43.2 1.6 -9.84761
451 4 3.2 44.8 0 -13.3691
422 2 8 43.2 1.6 -9.76208
453 4 6.4 44.8 0 -13.3215
424 2 11.2 43.2 1.6 -9.83756
455 2 9.6 44.8 0 -9.78975
426 4 14.4 43.2 1.6 -13.3266
457 2 12.8 44.8 0 -9.78701
428 4 17.6 43.2 1.6 -13.3188
459 3 16 44.8 0 -11.2922
430 4 20.8 43.2 1.6 -13.3933
461 2 19.2 44.8 0 -9.84635
432 4 24 43.2 1.6 -13.3498
463 2 22.4 44.8 0 -9.77919
465 3 25.6 44.8 0 -11.2026
434 1 27.2 43.2 1.6 -11.8271
467 3 28.8 44.8 0 -11.2756
436 4 30.4 43.2 1.6 -13.3645
469 3 32 44.8 0 -11.2753
438 1 33.6 43.2 1.6 -11.8418
471 3 35.2 44.8 0 -11.2417
440 1 36.8 43.2 1.6 -11.8123
473 3 38.4 44.8 0 -11.2756
442 1 40 43.2 1.6 -11.8414
475 3 41.6 44.8 0 -11.3099
444 1 43.2 43.2 1.6 -11.7717
477 3 44.8 44.8 0 -11.2578
446 4 46.4 43.2 1.6 -13.3406
479 3 48 44.8 0 -11.2531
448 4 49.6 43.2 1.6 -13.3178
450 2 1.6 46.4 1.6 -9.82118
481 3 0 48 0 -11.2331
452 4 4.8 46.4 1.6 -13.2978
483 2 3.2 48 0 -9.86576
454 1 8 46.4 1.6 -11.7218
485 2 6.4 48 0 -9.7778
456 1 11.2 46.4 1.6 -11.7748
487 3 9.6 48 0 -11.2359
458 1 14.4 46.4 1.6 -11.7842
489 3 12.8 48 0 -11.1651
460 4 17.6 46.4 1.6 -13.3546
491 3 16 48 0 -11.2362
462 4 20.8 46.4 1.6 -13.2951
493 2 19.2 48 0 -9.77848
464 1 24 46.4 1.6 -11.7872
495 2 22.4 48 0 -9.68282
497 3 25.6 48 0 -11.2387
466 1 27.2 46.4 1.6 -11.8121
499 3 28.8 48 0 -11.2753
468 1 30.4 46.4 1.6 -11.8558
501 3 32 48 0 -11.2414
470 1 33.6 46.4 1.6 -11.8415
503 3 35.2 48 0 -11.242
472 1 36.8 46.4 1.6 -11.8416
505 3 38.4 48 0 -11.2727
474 1 40 46.4 1.6 -11.8696
507 3 41.6 48 0 -11.3052
476 4 43.2 46.4 1.6 -13.3579
509 3 44.8 48 0 -11.3035
478 4 46.4 46.4 1.6 -13.3715
511 2 48 48 0 -9.77948
480 1 49.6 46.4 1.6 -11.7757
482 1 1.6 49.6 1.6 -11.8384
484 1 4.8 49.6 1.6 -11.6952
486 1 8 49.6 1.6 -11.7679
488 1 11.2 49.6 1.6 -11.8413
490 1 14.4 49.6 1.6 -11.8122
492 1 17.6 49.6 1.6 -11.8173
494 1 20.8 49.6 1.6 -11.7702
496 1 24 49.6 1.6 -11.7528
498 1 27.2 49.6 1.6 -11.8262
500 1 30.4 49.6 1.6 -11.8415
502 1 33.6 49.6 1.6 -11.8417
504 1 36.8 49.6 1.6 -11.8415
506 1 40 49.6 1.6 -11.8555
508 1 43.2 49.6 1.6 -11.8308
510 4 46.4 49.6 1.6 -13.3048
512 1 49.6 49.6 1.6 -11.8132
513 3 0 0 3.2 -11.3055
514 1 1.6 1.6 4.8 -11.8555
515 3 3.2 0 3.2 -11.2746
516 1 4.8 1.6 4.8 -11.8119
517 3 6.4 0 3.2 -11.1597
518 1 8 1.6 4.8 -11.8418
519 3 9.6 0 3.2 -11.3097
520 1 11.2 1.6 4.8 -11.8412
521 3 12.8 0 3.2 -11.242
522 1 14.4 1.6 4.8 -11.8552
523 3 16 0 3.2 -11.2391
524 1 17.6 1.6 4.8 -11.8413
525 3 19.2 0 3.2 -11.2384
526 1 20.8 1.6 4.8 -11.8132
527 2 22.4 0 3.2 -9.70683
528 1 24 1.6 4.8 -11.7348
529 2 25.6 0 3.2 -9.67688
530 1 27.2 1.6 4.8 -11.7364
531 3 28.8 0 3.2 -11.2007
532 4 30.4 1.6 4.8 -13.3591
533 3 32 0 3.2 -11.2759
534 1 33.6 1.6 4.8 -11.87
535 3 35.2 0 3.2 -11.2759
536 4 36.8 1.6 4.8 -13.3845
537 3 38.4 0 3.2 -11.2756
538 1 40 1.6 4.8 -11.8556
539 3 41.6 0 3.2 -11.2394
540 1 43.2 1.6 4.8 -11.828
541 2 44.8 0 3.2 -9.80603
542 1 46.4 1.6 4.8 -11.8279
543 3 48 0 3.2 -11.2707
544 1 49.6 1.6 4.8 -11.8279
545 3 0 3.2 3.2 -11.3385
546 4 1.6 4.8 4.8 -13.3793
547 3 3.2 3.2 3.2 -11.3042
548 1 4.8 4.8 4.8 -11.8258
549 3 6.4 3.2 3.2 -11.2725
550 1 8 4.8 4.8 -11.7985
551 3 9.6 3.2 3.2 -11.3044
552 1 11.2 4.8 4.8 -11.8132
553 3 12.8 3.2 3.2 -11.3058
554 4 14.4 4.8 4.8 -13.3182
555 3 16 3.2 3.2 -11.2726
556 1 17.6 4.8 4.8 -11.7387
557 3 19.2 3.2 3.2 -11.2698
558 4 20.8 4.8 4.8 -13.323
559 3 22.4 3.2 3.2 -11.2318
560 1 24 4.8 4.8 -11.7633
561 2 25.6 3.2 3.2 -9.61454
562 1 27.2 4.8 4.8 -11.7215
563 2 28.8 3.2 3.2 -9.7114
564 1 30.4 4.8 4.8 -11.8154
565 3 32 3.2 3.2 -11.2005
566 1 33.6 4.8 4.8 -11.7994
567 3 35.2 3.2 3.2 -11.2702
568 4 36.8 4.8 4.8 -13.3792
569 3 38.4 3.2 3.2 -11.27
570 1 40 4.8 4.8 -11.8279
571 3 41.6 3.2 3.2 -11.242
572 1 43.2 4.8 4.8 -11.8284
573 3 44.8 3.2 3.2 -11.2036
574 1 46.4 4.8 4.8 -11.7807
575 3 48 3.2 3.2 -11.242
576 1 49.6 4.8 4.8 -11.8294
577 3 0 6.4 3.2 -11.3618
578 4 1.6 8 4.8 -13.4037
579 3 3.2 6.4 3.2 -11.3314
580 1 4.8 8 4.8 -11.8087
581 2 6.4 6.4 3.2 -9.71836
582 1 8 8 4.8 -11.7593
583 2 9.6 6.4 3.2 -9.81133
584 1 11.2 8 4.8 -11.7447
585 2 12.8 6.4 3.2 -9.8462
586 4 14.4 8 4.8 -13.3001
587 4 16 6.4 3.2 -13.2384
588 2 17.6 8 4.8 -9.75025
589 2 19.2 6.4 3.2 -9.82322
590 1 20.8 8 4.8 -11.8342
591 3 22.4 6.4 3.2 -11.3034
592 4 24 8 4.8 -13.2472
593 2 25.6 6.4 3.2 -9.7259
594 4 27.2 8 4.8 -13.2884
595 3 28.8 6.4 3.2 -11.1941
596 4 30.4 8 4.8 -13.2947
597 2 32 6.4 3.2 -9.74243
598 1 33.6 8 4.8 -11.7574
599 3 35.2 6.4 3.2 -11.2344
600 4 36.8 8 4.8 -13.359
601 3 38.4 6.4 3.2 -11.2729
602 1 40 8 4.8 -11.8413
603 3 41.6 6.4 3.2 -11.242
604 1 43.2 8 4.8 -11.7958
605 3 44.8 6.4 3.2 -11.2042
606 1 46.4 8 4.8 -11.7594
607 3 48 6.4 3.2 -11.2387
608 2 49.6 8 4.8 -9.7372
609 2 0 9.6 3.2 -9.78646
610 4 1.6 11.2 4.8 -13.3024
611 3 3.2 9.6 3.2 -11.262
612 4 4.8 11.2 4.8 -13.3253
613 2 6.4 9.6 3.2 -9.81745
614 4 8 11.2 4.8 -13.3029
615 3 9.6 9.6 3.2 -11.2536
616 1 11.2 11.2 4.8 -11.7506
617 2 12.8 9.6 3.2 -9.81449
618 1 14.4 11.2 4.8 -11.7993
619 3 16 9.6 3.2 -11.3227
620 1 17.6 11.2 4.8 -11.8821
621 3 19.2 9.6 3.2 -11.4219
622 4 20.8 11.2 4.8 -13.3216
623 3 22.4 9.6 3.2 -11.2908
624 4 24 11.2 4.8 -13.3487
625 4 25.6 9.6 3.2 -13.2413
626 4 27.2 11.2 4.8 -13.3129
627 2 28.8 9.6 3.2 -9.79312
628 4 30.4 11.2 4.8 -13.3099
629 2 32 9.6 3.2 -9.73002
630 1 33.6 11.2 4.8 -11.6534
631 3 35.2 9.6 3.2 -11.233
632 1 36.8 11.2 4.8 -11.7432
633 3 38.4 9.6 3.2 -11.3385
634 4 40 11.2 4.8 -13.3042
635 3 41.6 9.6 3.2 -11.2711
636 4 43.2 11.2 4.8 -13.324
637 3 44.8 9.6 3.2 -11.2651
638 2 46.4 11.2 4.8 -9.82106
639 2 48 9.6 3.2 -9.84802
640 1 49.6 11.2 4.8 -11.7367
641 4 0 12.8 3.2 -13.2528
642 2 1.6 14.4 4.8 -9.77942
643 4 3.2 12.8 3.2 -13.2441
644 2 4.8 14.4 4.8 -9.84699
645 4 6.4 12.8 3.2 -13.2412
646 4 8 14.4 4.8 -13.3231
647 3 9.6 12.8 3.2 -11.2952
648 1 11.2 14.4 4.8 -11.8278
649 2 12.8 12.8 3.2 -9.76427
650 4 14.4 14.4 4.8 -13.3035
651 3 16 12.8 3.2 -11.3302
652 4 17.6 14.4 4.8 -13.274
653 3 19.2 12.8 3.2 -11.3006
654 1 20.8 14.4 4.8 -11.7668
655 3 22.4 12.8 3.2 -11.2945
656 4 24 14.4 4.8 -13.3739
657 3 25.6 12.8 3.2 -11.2637
658 4 27.2 14.4 4.8 -13.4069
659 3 28.8 12.8 3.2 -11.2897
660 2 30.4 14.4 4.8 -9.8302
661 4 32 12.8 3.2 -13.2022
662 4 33.6 14.4 4.8 -13.2077
663 4 35.2 12.8 3.2 -13.2007
664 2 36.8 14.4 4.8 -9.76347
665 2 38.4 12.8 3.2 -9.79199
666 2 40 14.4 4.8 -9.84887
667 1 41.6 12.8 3.2 -11.6993
668 2 43.2 14.4 4.8 -9.82127
669 4 44.8 12.8 3.2 -13.2423
670 2 46.4 14.4 4.8 -9.87141
671 2 48 12.8 3.2 -9.81156
672 2 49.6 14.4 4.8 -9.8477
673 1 0 16 3.2 -11.6909
674 2 1.6 17.6 4.8 -9.72528
675 4 3.2 16 3.2 -13.1901
676 2 4.8 17.6 4.8 -9.7878
677 2 6.4 16 3.2 -9.81177
678 4 8 17.6 4.8 -13.3462
679 3 9.6 16 3.2 -11.3068
680 2 11.2 17.6 4.8 -9.82153
681 4 12.8 16 3.2 -13.3338
682 4 14.4 17.6 4.8 -13.2922
683 4 16 16 3.2 -13.2925
684 2 17.6 17.6 4.8 -9.8121
685 2 19.2 16 3.2 -9.81247
686 2 20.8 17.6 4.8 -9.88354
687 2 22.4 16 3.2 -9.8379
688 2 24 17.6 4.8 -9.83304
689 2 25.6 16 3.2 -9.81329
690 2 27.2 17.6 4.8 -9.84211
691 2 28.8 16 3.2 -9.84226
692 2 30.4 17.6 4.8 -9.81882
693 4 32 16 3.2 -13.2793
694 2 33.6 17.6 4.8 -9.79162
695 2 35.2 16 3.2 -9.7816
696 2 36.8 17.6 4.8 -9.82269
697 4 38.4 16 3.2 -13.3074
698 2 40 17.6 4.8 -9.82096
699 2 41.6 16 3.2 -9.78841
700 2 43.2 17.6 4.8 -9.8166
701 4 44.8 16 3.2 -13.3171
702 3 46.4 17.6 4.8 -11.2611
703 4 48 16 3.2 -13.2939
704 2 49.6 17.6 4.8 -9.78235
705 1 0 19.2 3.2 -11.7073
706 3 1.6 20.8 4.8 -11.2029
707 1 3.2 19.2 3.2 -11.7562
708 3 4.8 20.8 4.8 -11.2702
709 4 6.4 19.2 3.2 -13.272
710 3 8 20.8 4.8 -11.2566
711 4 9.6 19.2 3.2 -13.3007
712 2 11.2 20.8 4.8 -9.78559
713 1 12.8 19.2 3.2 -11.7288
714 2 14.4 20.8 4.8 -9.78709
715 4 16 19.2 3.2 -13.2968
716 4 17.6 20.8 4.8 -13.2858
717 4 19.2 19.2 3.2 -13.3172
718 2 20.8 20.8 4.8 -9.8459
719 4 22.4 19.2 3.2 -13.3211
720 4 24 20.8 4.8 -13.1673
721 1 25.6 19.2 3.2 -11.7314
722 3 27.2 20.8 4.8 -11.1187
723 4 28.8 19.2 3.2 -13.3335
724 3 30.4 20.8 4.8 -11.1963
725 4 32 19.2 3.2 -13.2656
726 2 33.6 20.8 4.8 -9.81108
727 4 35.2 19.2 3.2 -13.2948
728 3 36.8 20.8 4.8 -11.2981
729 4 38.4 19.2 3.2 -13.2624
730 2 40 20.8 4.8 -9.80971
731 1 41.6 19.2 3.2 -11.7522
732 3 43.2 20.8 4.8 -11.2364
733 1 44.8 19.2 3.2 -11.7862
734 3 46.4 20.8 4.8 -11.2029
735 1 48 19.2 3.2 -11.7729
736 2 49.6 20.8 4.8 -9.74812
737 1 0 22.4 3.2 -11.8259
738 3 1.6 24 4.8 -11.2039
739 1 3.2 22.4 3.2 -11.8414
740 3 4.8 24 4.8 -11.2732
741 1 6.4 22.4 3.2 -11.8414
742 3 8 24 4.8 -11.337
743 1 9.6 22.4 3.2 -11.7846
744 3 11.2 24 4.8 -11.234
745 1 12.8 22.4 3.2 -11.7672
746 3 14.4 24 4.8 -11.3261
747 1 16 22.4 3.2 -11.8304
748 3 17.6 24 4.8 -11.247
749 4 19.2 22.4 3.2 -13.33
750 2 20.8 24 4.8 -9.78907
751 4 22.4 22.4 3.2 -13.3304
752 2 24 24 4.8 -9.7333
753 1 25.6 22.4 3.2 -11.7657
754 3 27.2 24 4.8 -11.2035
755 1 28.8 22.4 3.2 -11.8556
756 3 30.4 24 4.8 -11.2426
757 1 32 22.4 3.2 -11.7983
758 3 33.6 24 4.8 -11.2019
759 1 35.2 22.4 3.2 -11.8135
760 3 36.8 24 4.8 -11.2732
761 1 38.4 22.4 3.2 -11.8115
762 3 40 24 4.8 -11.3046
763 1 41.6 22.4 3.2 -11.8091
764 3 43.2 24 4.8 -11.2729
765 1 44.8 22.4 3.2 -11.8413
766 3 46.4 24 4.8 -11.2405
767 1 48 22.4 3.2 -11.8121
768 3 49.6 24 4.8 -11.2042
769 1 0 25.6 3.2 -11.8257
771 1 3.2 25.6 3.2 -11.828
773 1 6.4 25.6 3.2 -11.8554
775 1 9.6 25.6 3.2 -11.8433
777 1 12.8 25.6 3.2 -11.8259
779 4 16 25.6 3.2 -13.3751
781 1 19.2 25.6 3.2 -11.7637
783 1 22.4 25.6 3.2 -11.7519
785 1 25.6 25.6 3.2 -11.7849
787 1 28.8 25.6 3.2 -11.8122
789 1 32 25.6 3.2 -11.8123
791 1 35.2 25.6 3.2 -11.8091
793 4 38.4 25.6 3.2 -13.3826
795 4 41.6 25.6 3.2 -13.3001
797 1 44.8 25.6 3.2 -11.819
799 1 48 25.6 3.2 -11.8553
770 2 1.6 27.2 4.8 -9.80592
801 1 0 28.8 3.2 -11.8187
772 3 4.8 27.2 4.8 -11.3057
803 4 3.2 28.8 3.2 -13.3342
774 3 8 27.2 4.8 -11.3018
805 1 6.4 28.8 3.2 -11.8418
776 2 11.2 27.2 4.8 -9.83885
807 4 9.6 28.8 3.2 -13.3787
778 2 14.4 27.2 4.8 -9.81413
809 4 12.8 28.8 3.2 -13.2959
780 4 17.6 27.2 4.8 -13.3337
811 4 16 28.8 3.2 -13.3957
782 4 20.8 27.2 4.8 -13.1594
813 4 19.2 28.8 3.2 -13.3213
784 2 24 27.2 4.8 -9.76061
815 4 22.4 28.8 3.2 -13.3722
817 1 25.6 28.8 3.2 -11.8015
786 3 27.2 27.2 4.8 -11.2355
819 1 28.8 28.8 3.2 -11.7527
788 3 30.4 27.2 4.8 -11.1651
821 1 32 28.8 3.2 -11.753
790 2 33.6 27.2 4.8 -9.67688
823 1 35.2 28.8 3.2 -11.8089
792 2 36.8 27.2 4.8 -9.7426
825 4 38.4 28.8 3.2 -13.354
794 3 40 27.2 4.8 -11.2631
827 4 41.6 28.8 3.2 -13.2911
796 4 43.2 27.2 4.8 -13.2496
829 2 44.8 28.8 3.2 -9.79291
798 3 46.4 27.2 4.8 -11.3275
831 4 48 28.8 3.2 -13.3772
800 3 49.6 27.2 4.8 -11.269
802 2 1.6 30.4 4.8 -9.84557
833 4 0 32 3.2 -13.3025
804 3 4.8 30.4 4.8 -11.2702
835 4 3.2 32 3.2 -13.3072
806 3 8 30.4 4.8 -11.2734
837 1 6.4 32 3.2 -11.8281
808 2 11.2 30.4 4.8 -9.8141
839 1 9.6 32 3.2 -11.8279
810 4 14.4 30.4 4.8 -13.3134
841 1 12.8 32 3.2 -11.7848
812 3 17.6 30.4 4.8 -11.291
843 1 16 32 3.2 -11.8409
814 3 20.8 30.4 4.8 -11.3314
845 1 19.2 32 3.2 -11.8834
816 2 24 30.4 4.8 -9.8438
847 4 22.4 32 3.2 -13.3288
849 1 25.6 32 3.2 -11.8304
818 3 27.2 30.4 4.8 -11.2344
851 1 28.8 32 3.2 -11.8089
820 2 30.4 30.4 4.8 -9.6878
853 1 32 32 3.2 -11.7538
822 3 33.6 30.4 4.8 -11.1629
855 1 35.2 32 3.2 -11.7575
824 3 36.8 30.4 4.8 -11.2675
857 4 38.4 32 3.2 -13.3566
826 3 40 30.4 4.8 -11.288
859 4 41.6 32 3.2 -13.256
828 4 43.2 30.4 4.8 -13.3118
861 4 44.8 32 3.2 -13.2612
830 3 46.4 30.4 4.8 -11.2478
863 1 48 32 3.2 -11.7421
832 2 49.6 30.4 4.8 -9.8152
834 2 1.6 33.6 4.8 -9.81416
865 4 0 35.2 3.2 -13.3018
836 3 4.8 33.6 4.8 -11.2405
867 1 3.2 35.2 3.2 -11.8023
838 3 8 33.6 4.8 -11.1648
869 1 6.4 35.2 3.2 -11.7982
840 3 11.2 33.6 4.8 -11.2363
871 1 9.6 35.2 3.2 -11.7701
842 3 14.4 33.6 4.8 -11.2674
873 1 12.8 35.2 3.2 -11.8305
844 3 17.6 33.6 4.8 -11.3047
875 4 16 35.2 3.2 -13.3321
846 3 20.8 33.6 4.8 -11.2672
877 4 19.2 35.2 3.2 -13.3298
848 2 24 33.6 4.8 -9.86789
879 1 22.4 35.2 3.2 -11.7316
881 4 25.6 35.2 3.2 -13.3214
850 3 27.2 33.6 4.8 -11.3567
883 4 28.8 35.2 3.2 -13.4042
852 3 30.4 33.6 4.8 -11.2571
885 2 32 35.2 3.2 -9.75813
854 2 33.6 33.6 4.8 -9.76334
887 4 35.2 35.2 3.2 -13.286
856 4 36.8 33.6 4.8 -13.3177
889 3 38.4 35.2 3.2 -11.2029
858 2 40 33.6 4.8 -9.81602
891 4 41.6 35.2 3.2 -13.2169
860 2 43.2 33.6 4.8 -9.82121
893 4 44.8 35.2 3.2 -13.3171
862 2 46.4 33.6 4.8 -9.78767
895 1 48 35.2 3.2 -11.8115
864 2 49.6 33.6 4.8 -9.78523
866 3 1.6 36.8 4.8 -11.2658
897 1 0 38.4 3.2 -11.7744
868 3 4.8 36.8 4.8 -11.2687
899 4 3.2 38.4 3.2 -13.3308
870 2 8 36.8 4.8 -9.72239
901 4 6.4 38.4 3.2 -13.3229
872 2 11.2 36.8 4.8 -9.75712
903 4 9.6 38.4 3.2 -13.2589
874 2 14.4 36.8 4.8 -9.7943
905 4 12.8 38.4 3.2 -13.3229
876 4 17.6 36.8 4.8 -13.3244
907 2 16 38.4 3.2 -9.77908
878 2 20.8 36.8 4.8 -9.79244
909 2 19.2 38.4 3.2 -9.84635
880 2 24 36.8 4.8 -9.83428
911 2 22.4 38.4 3.2 -9.821
913 2 25.6 38.4 3.2 -9.7892
882 2 27.2 36.8 4.8 -9.85767
915 2 28.8 38.4 3.2 -9.7849
884 4 30.4 36.8 4.8 -13.2896
917 4 32 38.4 3.2 -13.1656
886 4 33.6 36.8 4.8 -13.2799
919 2 35.2 38.4 3.2 -9.76151
888 4 36.8 36.8 4.8 -13.3654
921 3 38.4 38.4 3.2 -11.2703
890 4 40 36.8 4.8 -13.3169
923 2 41.6 38.4 3.2 -9.75988
892 4 43.2 36.8 4.8 -13.2804
925 2 44.8 38.4 3.2 -9.82647
894 3 46.4 36.8 4.8 -11.2834
927 4 48 38.4 3.2 -13.3623
896 3 49.6 36.8 4.8 -11.2674
898 3 1.6 40 4.8 -11.253
929 4 0 41.6 3.2 -13.2928
900 4 4.8 40 4.8 -13.3115
931 4 3.2 41.6 3.2 -13.3252
902 2 8 40 4.8 -9.76691
933 4 6.4 41.6 3.2 -13.2605
904 2 11.2 40 4.8 -9.81953
935 4 9.6 41.6 3.2 -13.2799
906 1 14.4 40 4.8 -11.6764
937 2 12.8 41.6 3.2 -9.80799
908 4 17.6 40 4.8 -13.198
939 4 16 41.6 3.2 -13.2462
910 4 20.8 40 4.8 -13.3713
941 3 19.2 41.6 3.2 -11.285
912 1 24 40 4.8 -11.7918
943 3 22.4 41.6 3.2 -11.3859
945 2 25.6 41.6 3.2 -9.81187
914 1 27.2 40 4.8 -11.763
947 3 28.8 41.6 3.2 -11.2371
916 1 30.4 40 4.8 -11.7235
949 3 32 41.6 3.2 -11.2308
918 4 33.6 40 4.8 -13.2627
951 2 35.2 41.6 3.2 -9.74664
920 1 36.8 40 4.8 -11.7841
953 3 38.4 41.6 3.2 -11.2045
922 1 40 40 4.8 -11.8033
955 3 41.6 41.6 3.2 -11.2002
924 4 43.2 40 4.8 -13.2275
957 2 44.8 41.6 3.2 -9.79194
926 4 46.4 40 4.8 -13.3155
959 3 48 41.6 3.2 -11.2954
928 2 49.6 40 4.8 -9.81176
930 4 1.6 43.2 4.8 -13.2823
961 2 0 44.8 3.2 -9.82021
932 2 4.8 43.2 4.8 -9.81235
963 4 3.2 44.8 3.2 -13.3158
934 4 8 43.2 4.8 -13.2511
965 2 6.4 44.8 3.2 -9.75915
936 2 11.2 43.2 4.8 -9.85206
967 2 9.6 44.8 3.2 -9.81511
938 4 14.4 43.2 4.8 -13.2603
969 2 12.8 44.8 3.2 -9.83992
940 1 17.6 43.2 4.8 -11.7865
971 3 16 44.8 3.2 -11.2295
942 4 20.8 43.2 4.8 -13.3942
973 3 19.2 44.8 3.2 -11.3313
944 4 24 43.2 4.8 -13.352
975 3 22.4 44.8 3.2 -11.3297
977 2 25.6 44.8 3.2 -9.77453
946 1 27.2 43.2 4.8 -11.7982
979 3 28.8 44.8 3.2 -11.2381
948 1 30.4 43.2 4.8 -11.8695
981 3 32 44.8 3.2 -11.3091
950 4 33.6 43.2 4.8 -13.3561
983 3 35.2 44.8 3.2 -11.2397
952 1 36.8 43.2 4.8 -11.8137
985 3 38.4 44.8 3.2 -11.242
954 1 40 43.2 4.8 -11.7979
987 3 41.6 44.8 3.2 -11.2364
956 1 43.2 43.2 4.8 -11.6918
989 2 44.8 44.8 3.2 -9.81574
958 4 46.4 43.2 4.8 -13.3001
991 2 48 44.8 3.2 -9.89373
960 2 49.6 43.2 4.8 -9.8472
962 4 1.6 46.4 4.8 -13.3038
993 3 0 48 3.2 -11.3275
964 4 4.8 46.4 4.8 -13.2938
995 3 3.2 48 3.2 -11.2934
966 1 8 46.4 4.8 -11.7475
997 2 6.4 48 3.2 -9.75595
968 4 11.2 46.4 4.8 -13.2762
999 3 9.6 48 3.2 -11.2374
970 1 14.4 46.4 4.8 -11.7756
1001 3 12.8 48 3.2 -11.1615
972 1 17.6 46.4 4.8 -11.8132
1003 2 16 48 3.2 -9.80178
974 1 20.8 46.4 4.8 -11.8413
1005 3 19.2 48 3.2 -11.2704
976 1 24 46.4 4.8 -11.8413
1007 3 22.4 48 3.2 -11.201
1009 3 25.6 48 3.2 -11.1658
978 1 27.2 46.4 4.8 -11.7982
1011 3 28.8 48 3.2 -11.2042
980 1 30.4 46.4 4.8 -11.7983
1013 3 32 48 3.2 -11.2039
982 1 33.6 46.4 4.8 -11.8115
1015 3 35.2 48 3.2 -11.2036
984 1 36.8 46.4 4.8 -11.812
1017 3 38.4 48 3.2 -11.2417
986 1 40 46.4 4.8 -11.8437
1019 3 41.6 48 3.2 -11.3061
988 4 43.2 46.4 4.8 -13.2912
1021 2 44.8 48 3.2 -9.86981
990 2 46.4 46.4 4.8 -9.79413
1023 2 48 48 3.2 -9.8421
992 4 49.6 46.4 4.8 -13.3491
994 4 1.6 49.6 4.8 -13.3556
996 1 4.8 49.6 4.8 -11.8002
998 4 8 49.6 4.8 -13.2805
1000 1 11.2 49.6 4.8 -11.8572
1002 1 14.4 49.6 4.8 -11.8149
1004 4 17.6 49.6 4.8 -13.3389
1006 1 20.8 49.6 4.8 -11.8258
1008 1 24 49.6 4.8 -11.7941
1010 1 27.2 49.6 4.8 -11.7827
1012 1 30.4 49.6 4.8 -11.7939
1014 1 33.6 49.6 4.8 -11.7985
1016 1 36.8 49.6 4.8 -11.826
1018 1 40 49.6 4.8 -11.8554
1020 4 43.2 49.6 4.8 -13.3538
1022 4 46.4 49.6 4.8 -13.3798
1024 4 49.6 49.6 4.8 -13.3248
1025 2 0 0 6.4 -9.74534
1026 1 1.6 1.6 8 -11.7962
1027 3 3.2 0 6.4 -11.2022
1028 1 4.8 1.6 8 -11.7509
1029 2 6.4 0 6.4 -9.71268
1030 1 8 1.6 8 -11.7218
1031 3 9.6 0 6.4 -11.2371
1032 1 11.2 1.6 8 -11.7654
1033 3 12.8 0 6.4 -11.2003
1034 1 14.4 1.6 8 -11.8392
1035 3 16 0 6.4 -11.3089
1036 4 17.6 1.6 8 -13.3027
1037 3 19.2 0 6.4 -11.2706
1038 4 20.8 1.6 8 -13.3268
1039 3 22.4 0 6.4 -11.2696
1040 4 24 1.6 8 -13.3197
1041 3 25.6 0 6.4 -11.198
1042 1 27.2 1.6 8 -11.7581
1043 3 28.8 0 6.4 -11.2336
1044 4 30.4 1.6 8 -13.351
1045 3 32 0 6.4 -11.2692
1046 1 33.6 1.6 8 -11.8589
1047 3 35.2 0 6.4 -11.2726
1048 1 36.8 1.6 8 -11.8693
1049 3 38.4 0 6.4 -11.2758
1050 1 40 1.6 8 -11.7979
1051 3 41.6 0 6.4 -11.2722
1052 1 43.2 1.6 8 -11.773
1053 3 44.8 0 6.4 -11.2664
1054 1 46.4 1.6 8 -11.7848
1055 3 48 0 6.4 -11.2702
1056 1 49.6 1.6 8 -11.7524
1057 3 0 3.2 6.4 -11.2019
1058 1 1.6 4.8 8 -11.8281
1059 3 3.2 3.2 6.4 -11.2764
1060 1 4.8 4.8 8 -11.781
1061 3 6.4 3.2 6.4 -11.1645
1062 1 8 4.8 8 -11.7509
1063 3 9.6 3.2 6.4 -11.2429
1064 1 11.2 4.8 8 -11.827
1065 3 12.8 3.2 6.4 -11.3381
1066 2 14.4 4.8 8 -9.84195
1067 3 16 3.2 6.4 -11.2972
1068 4 17.6 4.8 8 -13.2791
1069 2 19.2 3.2 6.4 -9.81574
1070 4 20.8 4.8 8 -13.3177
1071 3 22.4 3.2 6.4 -11.2987
1072 4 24 4.8 8 -13.2939
1073 2 25.6 3.2 6.4 -9.72614
1074 4 27.2 4.8 8 -13.3295
1075 3 28.8 3.2 6.4 -11.2679
1076 1 30.4 4.8 8 -11.8431
1077 3 32 3.2 6.4 -11.3081
1078 1 33.6 4.8 8 -11.7843
1079 3 35.2 3.2 6.4 -11.3042
1080 4 36.8 4.8 8 -13.3252
1081 3 38.4 3.2 6.4 -11.3044
1082 1 40 4.8 8 -11.7729
1083 3 41.6 3.2 6.4 -11.2405
1084 4 43.2 4.8 8 -13.2489
1085 3 44.8 3.2 6.4 -11.2032
1086 1 46.4 4.8 8 -11.7104
1087 3 48 3.2 6.4 -11.1648
1088 1 49.6 4.8 8 -11.7525
1089 2 0 6.4 6.4 -9.80794
1090 1 1.6 8 8 -11.7843
1091 3 3.2 6.4 6.4 -11.2732
1092 1 4.8 8 8 -11.796
1093 3 6.4 6.4 6.4 -11.1667
1094 1 8 8 8 -11.7409
1095 3 9.6 6.4 6.4 -11.1251
1096 1 11.2 8 8 -11.7098
1097 3 12.8 6.4 6.4 -11.2256
1098 4 14.4 8 8 -13.3087
1099 4 16 6.4 6.4 -13.3117
1100 1 17.6 8 8 -11.7759
1101 2 19.2 6.4 6.4 -9.79357
1102 4 20.8 8 8 -13.2401
1103 3 22.4 6.4 6.4 -11.2201