ITEM: TIMESTEP
0
ITEM: NUMBER OF ATOMS
8192
ITEM: BOX BOUNDS pp pp pp
0.0000000000000000e+00 5.1200000000000003e+01
0.0000000000000000e+00 5.1200000000000003e+01
0.0000000000000000e+00 5.1200000000000003e+01
ITEM: ATOMS id type x y z c_eng
1 1 0 0 0 -11.5959
2 1 1.6 1.6 1.6 -11.4399
3 3 3.2 0 0 -10.9334
4 1 4.8 1.6 1.6 -11.5596
5 2 6.4 0 0 -9.57431
6 1 8 1.6 1.6 -11.6732
7 1 9.6 0 0 -11.5714
8 1 11.2 1.6 1.6 -11.6672
9 1 12.8 0 0 -11.4696
10 1 14.4 1.6 1.6 -11.7144
11 2 16 0 0 -9.67349
12 1 17.6 1.6 1.6 -11.7503
13 2 19.2 0 0 -9.67087
14 1 20.8 1.6 1.6 -11.7176
15 2 22.4 0 0 -9.7449
16 1 24 1.6 1.6 -11.7772
17 2 25.6 0 0 -9.62933
18 1 27.2 1.6 1.6 -11.6598
19 1 28.8 0 0 -11.4013
20 1 30.4 1.6 1.6 -11.6175
21 3 32 0 0 -11.0387
22 1 33.6 1.6 1.6 -11.6449
23 3 35.2 0 0 -11.1676
24 1 36.8 1.6 1.6 -11.6993
25 3 38.4 0 0 -11.1268
26 2 40 1.6 1.6 -9.59209
27 1 41.6 0 0 -11.555
28 2 43.2 1.6 1.6 -9.64691
29 1 44.8 0 0 -11.7831
30 3 46.4 1.6 1.6 -11.0419
31 1 48 0 0 -11.6504
32 1 49.6 1.6 1.6 -11.3712
33 1 0 3.2 0 -11.4951
34 2 1.6 4.8 1.6 -9.52566
35 1 3.2 3.2 0 -11.5685
36 2 4.8 4.8 1.6 -9.60495
37 1 6.4 3.2 0 -11.5738
38 2 8 4.8 1.6 -9.70263
39 2 9.6 3.2 0 -9.77554
40 1 11.2 4.8 1.6 -11.7187
41 3 12.8 3.2 0 -11.2604
42 1 14.4 4.8 1.6 -11.8117
43 3 16 3.2 0 -11.2004
44 1 17.6 4.8 1.6 -11.7846
45 2 19.2 3.2 0 -9.57956
46 1 20.8 4.8 1.6 -11.7242
47 2 22.4 3.2 0 -9.6958
48 1 24 4.8 1.6 -11.7588
49 2 25.6 3.2 0 -9.80812
50 1 27.2 4.8 1.6 -11.6935
51 2 28.8 3.2 0 -9.53225
52 1 30.4 4.8 1.6 -11.624
53 2 32 3.2 0 -9.64908
54 1 33.6 4.8 1.6 -11.5256
55 2 35.2 3.2 0 -9.62821
56 2 36.8 4.8 1.6 -9.63345
57 2 38.4 3.2 0 -9.74393
58 1 40 4.8 1.6 -11.6203
59 1 41.6 3.2 0 -11.6236
60 2 43.2 4.8 1.6 -9.53129
61 1 44.8 3.2 0 -11.7504
62 3 46.4 4.8 1.6 -10.8973
63 1 48 3.2 0 -11.6753
64 2 49.6 4.8 1.6 -9.58737
65 1 0 6.4 0 -11.6891
66 2 1.6 8 1.6 -9.58272
67 1 3.2 6.4 0 -11.7183
68 2 4.8 8 1.6 -9.61528
69 1 6.4 6.4 0 -11.75
70 2 8 8 1.6 -9.63085
71 2 9.6 6.4 0 -9.71058
72 1 11.2 8 1.6 -11.4296
73 3 12.8 6.4 0 -11.1605
74 1 14.4 8 1.6 -11.6549
75 3 16 6.4 0 -11.1663
76 1 17.6 8 1.6 -11.6893
77 3 19.2 6.4 0 -11.04
78 1 20.8 8 1.6 -11.6915
79 2 22.4 6.4 0 -9.75522
80 1 24 8 1.6 -11.759
81 2 25.6 6.4 0 -9.72779
82 1 27.2 8 1.6 -11.5869
83 1 28.8 6.4 0 -11.5149
84 1 30.4 8 1.6 -11.4969
85 3 32 6.4 0 -10.9936
86 1 33.6 8 1.6 -11.4487
87 2 35.2 6.4 0 -9.62914
88 1 36.8 8 1.6 -11.5984
89 2 38.4 6.4 0 -9.69951
90 1 40 8 1.6 -11.6885
91 2 41.6 6.4 0 -9.67261
92 1 43.2 8 1.6 -11.6199
93 1 44.8 6.4 0 -11.5654
94 1 46.4 8 1.6 -11.5606
95 1 48 6.4 0 -11.6876
96 2 49.6 8 1.6 -9.69708
97 1 0 9.6 0 -11.6626
98 2 1.6 11.2 1.6 -9.6922
99 1 3.2 9.6 0 -11.7205
100 3 4.8 11.2 1.6 -11.1246
101 1 6.4 9.6 0 -11.7806
102 3 8 11.2 1.6 -10.9936
103 1 9.6 9.6 0 -11.5289
104 1 11.2 11.2 1.6 -11.4528
105 2 12.8 9.6 0 -9.51361
106 1 14.4 11.2 1.6 -11.5975
107 2 16 9.6 0 -9.61504
108 1 17.6 11.2 1.6 -11.6275
109 2 19.2 9.6 0 -9.61773
110 1 20.8 11.2 1.6 -11.6907
111 2 22.4 9.6 0 -9.72341
112 1 24 11.2 1.6 -11.7015
113 2 25.6 9.6 0 -9.72846
114 1 27.2 11.2 1.6 -11.5071
115 1 28.8 9.6 0 -11.5376
116 2 30.4 11.2 1.6 -9.56463
117 1 32 9.6 0 -11.5939
118 2 33.6 11.2 1.6 -9.60665
119 2 35.2 9.6 0 -9.60469
120 1 36.8 11.2 1.6 -11.523
121 2 38.4 9.6 0 -9.61563
122 1 40 11.2 1.6 -11.7208
123 3 41.6 9.6 0 -11.1252
124 1 43.2 11.2 1.6 -11.7846
125 3 44.8 9.6 0 -11.1659
126 1 46.4 11.2 1.6 -11.7563
127 3 48 9.6 0 -11.1799
128 2 49.6 11.2 1.6 -9.75465
129 2 0 12.8 0 -9.63814
130 2 1.6 14.4 1.6 -9.60715
131 1 3.2 12.8 0 -11.7597
132 3 4.8 14.4 1.6 -11.1641
133 1 6.4 12.8 0 -11.8117
134 2 8 14.4 1.6 -9.594
135 1 9.6 12.8 0 -11.5968
136 2 11.2 14.4 1.6 -9.61858
137 3 12.8 12.8 0 -10.9918
138 1 14.4 14.4 1.6 -11.6914
139 2 16 12.8 0 -9.64864
140 1 17.6 14.4 1.6 -11.627
141 3 19.2 12.8 0 -10.995
142 1 20.8 14.4 1.6 -11.6486
143 2 22.4 12.8 0 -9.70439
144 2 24 14.4 1.6 -9.63783
145 2 25.6 12.8 0 -9.67844
146 3 27.2 14.4 1.6 -11.0824
147 1 28.8 12.8 0 -11.6609
148 3 30.4 14.4 1.6 -11.1255
149 1 32 12.8 0 -11.6907
150 2 33.6 14.4 1.6 -9.62931
151 1 35.2 12.8 0 -11.5149
152 1 36.8 14.4 1.6 -11.533
153 2 38.4 12.8 0 -9.54499
154 1 40 14.4 1.6 -11.7238
155 3 41.6 12.8 0 -11.0824
156 1 43.2 14.4 1.6 -11.6968
157 2 44.8 12.8 0 -9.67735
158 1 46.4 14.4 1.6 -11.6612
159 2 48 12.8 0 -9.65703
160 1 49.6 14.4 1.6 -11.6179
161 1 0 16 0 -11.5969
162 2 1.6 17.6 1.6 -9.70102
163 1 3.2 16 0 -11.6895
164 2 4.8 17.6 1.6 -9.60438
165 1 6.4 16 0 -11.6123
166 1 8 17.6 1.6 -11.2899
167 1 9.6 16 0 -11.3625
168 1 11.2 17.6 1.6 -11.5409
169 2 12.8 16 0 -9.69729
170 1 14.4 17.6 1.6 -11.7505
171 2 16 16 0 -9.61454
172 1 17.6 17.6 1.6 -11.7251
173 2 19.2 16 0 -9.66604
174 2 20.8 17.6 1.6 -9.69464
175 1 22.4 16 0 -11.4512
176 2 24 17.6 1.6 -9.60629
177 1 25.6 16 0 -11.611
178 3 27.2 17.6 1.6 -11.1232
179 1 28.8 16 0 -11.7505
180 3 30.4 17.6 1.6 -11.0838
181 1 32 16 0 -11.6977
182 2 33.6 17.6 1.6 -9.59377
183 2 35.2 16 0 -9.63516
184 1 36.8 17.6 1.6 -11.5252
185 3 38.4 16 0 -11.0424
186 1 40 17.6 1.6 -11.6352
187 2 41.6 16 0 -9.64636
188 1 43.2 17.6 1.6 -11.6443
189 2 44.8 16 0 -9.58234
190 1 46.4 17.6 1.6 -11.6986
191 2 48 16 0 -9.59527
192 2 49.6 17.6 1.6 -9.7342
193 1 0 19.2 0 -11.6194
194 1 1.6 20.8 1.6 -11.5785
195 1 3.2 19.2 0 -11.5571
196 1 4.8 20.8 1.6 -11.5195
197 1 6.4 19.2 0 -11.3266
198 1 8 20.8 1.6 -11.5477
199 1 9.6 19.2 0 -11.3041
200 1 11.2 20.8 1.6 -11.7305
201 3 12.8 19.2 0 -11.0816
202 1 14.4 20.8 1.6 -11.8415
203 3 16 19.2 0 -11.1657
204 1 17.6 20.8 1.6 -11.7841
205 3 19.2 19.2 0 -11.1208
206 1 20.8 20.8 1.6 -11.6271
207 2 22.4 19.2 0 -9.53543
208 1 24 20.8 1.6 -11.5428
209 2 25.6 19.2 0 -9.69542
210 1 27.2 20.8 1.6 -11.5086
211 1 28.8 19.2 0 -11.6529
212 2 30.4 20.8 1.6 -9.63297
213 1 32 19.2 0 -11.6275
214 2 33.6 20.8 1.6 -9.58296
215 1 35.2 19.2 0 -11.5776
216 2 36.8 20.8 1.6 -9.59501
217 2 38.4 19.2 0 -9.63318
218 2 40 20.8 1.6 -9.66939
219 2 41.6 19.2 0 -9.69447
220 2 43.2 20.8 1.6 -9.70074
221 2 44.8 19.2 0 -9.78462
222 2 46.4 20.8 1.6 -9.69461
223 2 48 19.2 0 -9.6951
224 2 49.6 20.8 1.6 -9.65635
225 1 0 22.4 0 -11.6079
226 2 1.6 24 1.6 -9.65983
227 1 3.2 22.4 0 -11.6115
228 3 4.8 24 1.6 -11.1225
229 1 6.4 22.4 0 -11.5855
230 2 8 24 1.6 -9.73555
231 3 9.6 22.4 0 -11.0668
232 2 11.2 24 1.6 -9.70179
233 3 12.8 22.4 0 -11.2044
234 1 14.4 24 1.6 -11.6878
235 3 16 22.4 0 -11.0378
236 1 17.6 24 1.6 -11.66
237 2 19.2 22.4 0 -9.63106
238 2 20.8 24 1.6 -9.62464
239 1 22.4 22.4 0 -11.4323
240 2 24 24 1.6 -9.70592
241 2 25.6 22.4 0 -9.72238
242 2 27.2 24 1.6 -9.70335
243 1 28.8 22.4 0 -11.6666
244 3 30.4 24 1.6 -11.0389
245 1 32 22.4 0 -11.6578
246 3 33.6 24 1.6 -11.0835
247 1 35.2 22.4 0 -11.6915
248 2 36.8 24 1.6 -9.64578
249 1 38.4 22.4 0 -11.7253
250 2 40 24 1.6 -9.61516
251 1 41.6 22.4 0 -11.6967
252 2 43.2 24 1.6 -9.65971
253 1 44.8 22.4 0 -11.696
254 2 46.4 24 1.6 -9.59818
255 1 48 22.4 0 -11.6233
256 1 49.6 24 1.6 -11.4567
257 1 0 25.6 0 -11.3884
259 1 3.2 25.6 0 -11.5433
261 1 6.4 25.6 0 -11.4951
263 1 9.6 25.6 0 -11.4924
265 1 12.8 25.6 0 -11.468
267 1 16 25.6 0 -11.4798
269 1 19.2 25.6 0 -11.5442
271 1 22.4 25.6 0 -11.6227
273 1 25.6 25.6 0 -11.7565
275 1 28.8 25.6 0 -11.6912
277 1 32 25.6 0 -11.7208
279 1 35.2 25.6 0 -11.7846
281 1 38.4 25.6 0 -11.7528
283 1 41.6 25.6 0 -11.7223
285 1 44.8 25.6 0 -11.6969
287 1 48 25.6 0 -11.5565
258 1 1.6 27.2 1.6 -11.5234
289 2 0 28.8 0 -9.58725
260 1 4.8 27.2 1.6 -11.5692
291 2 3.2 28.8 0 -9.56193
262 1 8 27.2 1.6 -11.5774
293 2 6.4 28.8 0 -9.57017
264 1 11.2 27.2 1.6 -11.5816
295 2 9.6 28.8 0 -9.57132
266 2 14.4 27.2 1.6 -9.65373
297 1 12.8 28.8 0 -11.6112
268 2 17.6 27.2 1.6 -9.70091
299 1 16 28.8 0 -11.7291
270 2 20.8 27.2 1.6 -9.59945
301 1 19.2 28.8 0 -11.6227
272 3 24 27.2 1.6 -11.0846
303 1 22.4 28.8 0 -11.6545
305 1 25.6 28.8 0 -11.7528
274 2 27.2 27.2 1.6 -9.64841
307 1 28.8 28.8 0 -11.6897
276 2 30.4 27.2 1.6 -9.61504
309 1 32 28.8 0 -11.7511
278 3 33.6 27.2 1.6 -11.2054
311 1 35.2 28.8 0 -11.8417
280 3 36.8 27.2 1.6 -11.2051
313 1 38.4 28.8 0 -11.7504
282 3 40 27.2 1.6 -11.0392
315 1 41.6 28.8 0 -11.6471
284 2 43.2 27.2 1.6 -9.68946
317 1 44.8 28.8 0 -11.5217
286 2 46.4 27.2 1.6 -9.67795
319 3 48 28.8 0 -11.0789
288 1 49.6 27.2 1.6 -11.5452
290 1 1.6 30.4 1.6 -11.5984
321 2 0 32 0 -9.69189
292 1 4.8 30.4 1.6 -11.4898
323 2 3.2 32 0 -9.66952
294 1 8 30.4 1.6 -11.5323
325 2 6.4 32 0 -9.56178
296 1 11.2 30.4 1.6 -11.49
327 1 9.6 32 0 -11.5253
298 2 14.4 30.4 1.6 -9.63623
329 1 12.8 32 0 -11.6103
300 2 17.6 30.4 1.6 -9.62917
331 1 16 32 0 -11.7808
302 2 20.8 30.4 1.6 -9.56523
333 1 19.2 32 0 -11.6815
304 3 24 30.4 1.6 -11.161
335 1 22.4 32 0 -11.672
337 1 25.6 32 0 -11.7528
306 2 27.2 30.4 1.6 -9.67712
339 1 28.8 32 0 -11.7532
308 2 30.4 30.4 1.6 -9.64578
341 1 32 32 0 -11.7532
310 3 33.6 30.4 1.6 -11.1648
343 1 35.2 32 0 -11.7804
312 3 36.8 30.4 1.6 -11.1657
345 1 38.4 32 0 -11.6389
314 2 40 30.4 1.6 -9.62933
347 2 41.6 32 0 -9.6499
316 2 43.2 30.4 1.6 -9.60091
349 3 44.8 32 0 -11.0332
318 1 46.4 30.4 1.6 -11.6696
351 3 48 32 0 -11.1677
320 1 49.6 30.4 1.6 -11.7238
322 2 1.6 33.6 1.6 -9.67618
353 2 0 35.2 0 -9.63555
324 2 4.8 33.6 1.6 -9.66547
355 1 3.2 35.2 0 -11.7402
326 2 8 33.6 1.6 -9.64233
357 1 6.4 35.2 0 -11.6976
328 2 11.2 33.6 1.6 -9.62906
359 1 9.6 35.2 0 -11.627
330 3 14.4 33.6 1.6 -11.1249
361 1 12.8 35.2 0 -11.7511
332 3 17.6 33.6 1.6 -11.2065
363 1 16 35.2 0 -11.8124
334 3 20.8 33.6 1.6 -11.1952
365 1 19.2 35.2 0 -11.7844
336 3 24 33.6 1.6 -11.1934
367 1 22.4 35.2 0 -11.7525
369 1 25.6 35.2 0 -11.6893
338 3 27.2 33.6 1.6 -11.1678
371 1 28.8 35.2 0 -11.6108
340 3 30.4 33.6 1.6 -11.0843
373 1 32 35.2 0 -11.5534
342 3 33.6 33.6 1.6 -11.1666
375 1 35.2 35.2 0 -11.6684
344 3 36.8 33.6 1.6 -11.1261
377 2 38.4 35.2 0 -9.63914
346 1 40 33.6 1.6 -11.5156
379 3 41.6 35.2 0 -11.0703
348 1 43.2 33.6 1.6 -11.729
381 2 44.8 35.2 0 -9.77671
350 1 46.4 33.6 1.6 -11.7235
383 2 48 35.2 0 -9.58343
352 1 49.6 33.6 1.6 -11.6295
354 3 1.6 36.8 1.6 -11.0826
385 1 0 38.4 0 -11.5363
356 3 4.8 36.8 1.6 -11.1657
387 1 3.2 38.4 0 -11.7841
358 2 8 36.8 1.6 -9.67724
389 1 6.4 38.4 0 -11.7811
360 3 11.2 36.8 1.6 -11.1238
391 1 9.6 38.4 0 -11.7511
362 3 14.4 36.8 1.6 -11.2426
393 1 12.8 38.4 0 -11.8124
364 3 17.6 36.8 1.6 -11.1648
395 1 16 38.4 0 -11.8124
366 2 20.8 36.8 1.6 -9.65908
397 1 19.2 38.4 0 -11.7528
368 2 24 36.8 1.6 -9.58446
399 1 22.4 38.4 0 -11.5526
401 1 25.6 38.4 0 -11.4182
370 2 27.2 36.8 1.6 -9.54525
403 1 28.8 38.4 0 -11.4455
372 2 30.4 36.8 1.6 -9.55919
405 2 32 38.4 0 -9.62638
374 2 33.6 36.8 1.6 -9.72877
407 2 35.2 38.4 0 -9.7295
376 2 36.8 36.8 1.6 -9.67592
409 2 38.4 38.4 0 -9.66061
378 1 40 36.8 1.6 -11.5969
411 2 41.6 38.4 0 -9.6659
380 1 43.2 36.8 1.6 -11.6959
413 2 44.8 38.4 0 -9.72171
382 1 46.4 36.8 1.6 -11.5502
415 2 48 38.4 0 -9.32873
384 1 49.6 36.8 1.6 -11.4311
386 2 1.6 40 1.6 -9.57919
417 1 0 41.6 0 -11.6108
388 3 4.8 40 1.6 -11.1651
419 1 3.2 41.6 0 -11.7508
390 3 8 40 1.6 -11.1664
421 1 6.4 41.6 0 -11.7511
392 3 11.2 40 1.6 -11.2045
423 1 9.6 41.6 0 -11.7811
394 3 14.4 40 1.6 -11.2417
425 1 12.8 41.6 0 -11.8417
396 3 17.6 40 1.6 -11.2045
427 1 16 41.6 0 -11.8417
398 2 20.8 40 1.6 -9.62597
429 1 19.2 41.6 0 -11.8142
400 1 24 40 1.6 -11.3701
431 2 22.4 41.6 0 -9.67358
433 2 25.6 41.6 0 -9.65503
402 1 27.2 40 1.6 -11.4625
435 2 28.8 41.6 0 -9.74191
404 1 30.4 40 1.6 -11.5204
437 3 32 41.6 0 -11.1439
406 3 33.6 40 1.6 -11.122
439 3 35.2 41.6 0 -11.188
408 1 36.8 40 1.6 -11.6184
441 3 38.4 41.6 0 -11.0416
410 1 40 40 1.6 -11.6607
443 2 41.6 41.6 0 -9.72931
412 1 43.2 40 1.6 -11.7253
445 3 44.8 41.6 0 -10.9594
414 1 46.4 40 1.6 -11.389
447 1 48 41.6 0 -11.4351
416 1 49.6 40 1.6 -11.2595
418 2 1.6 43.2 1.6 -9.59804
449 1 0 44.8 0 -11.7121
420 2 4.8 43.2 1.6 -9.69222
451 1 3.2 44.8 0 -11.6041
422 2 8 43.2 1.6 -9.61516
453 1 6.4 44.8 0 -11.5571
424 3 11.2 43.2 1.6 -11.1244
455 1 9.6 44.8 0 -11.7251
426 3 14.4 43.2 1.6 -11.2426
457 1 12.8 44.8 0 -11.8122
428 3 17.6 43.2 1.6 -11.1651
459 1 16 44.8 0 -11.8122
430 2 20.8 43.2 1.6 -9.69335
461 1 19.2 44.8 0 -11.7579
432 1 24 43.2 1.6 -11.5953
463 2 22.4 44.8 0 -9.72071
465 2 25.6 44.8 0 -9.6624
434 1 27.2 43.2 1.6 -11.7724
467 3 28.8 44.8 0 -11.1579
436 1 30.4 43.2 1.6 -11.6372
469 2 32 44.8 0 -9.65907
438 2 33.6 43.2 1.6 -9.71515
471 2 35.2 44.8 0 -9.68879
440 1 36.8 43.2 1.6 -11.7019
473 2 38.4 44.8 0 -9.72981
442 1 40 43.2 1.6 -11.6442
475 1 41.6 44.8 0 -11.6038
444 2 43.2 43.2 1.6 -9.72429
477 1 44.8 44.8 0 -11.6448
446 1 46.4 43.2 1.6 -11.4814
479 2 48 44.8 0 -9.61219
448 2 49.6 43.2 1.6 -9.52127
450 1 1.6 46.4 1.6 -11.5515
481 2 0 48 0 -9.75498
452 2 4.8 46.4 1.6 -9.48935
483 1 3.2 48 0 -11.451
454 2 8 46.4 1.6 -9.71901
485 1 6.4 48 0 -11.4821
456 2 11.2 46.4 1.6 -9.75447
487 2 9.6 48 0 -9.73697
458 3 14.4 46.4 1.6 -11.0815
489 1 12.8 48 0 -11.5933
460 2 17.6 46.4 1.6 -9.6906
491 1 16 48 0 -11.6685
462 2 20.8 46.4 1.6 -9.72039
493 1 19.2 48 0 -11.62
464 1 24 46.4 1.6 -11.7245
495 2 22.4 48 0 -9.70279
497 2 25.6 48 0 -9.50959
466 1 27.2 46.4 1.6 -11.7196
499 2 28.8 48 0 -9.50881
468 1 30.4 46.4 1.6 -11.6283
501 2 32 48 0 -9.61552
470 1 33.6 46.4 1.6 -11.6123
503 2 35.2 48 0 -9.61492
472 1 36.8 46.4 1.6 -11.6905
505 3 38.4 48 0 -11.116
474 2 40 46.4 1.6 -9.65886
507 1 41.6 48 0 -11.6455
476 3 43.2 46.4 1.6 -11.1657
509 1 44.8 48 0 -11.674
478 2 46.4 46.4 1.6 -9.58123
511 1 48 48 0 -11.6915
480 2 49.6 46.4 1.6 -9.73554
482 1 1.6 49.6 1.6 -11.6482
484 1 4.8 49.6 1.6 -11.6016
486 2 8 49.6 1.6 -9.80759
488 2 11.2 49.6 1.6 -9.60426
490 1 14.4 49.6 1.6 -11.5184
492 1 17.6 49.6 1.6 -11.5603
494 1 20.8 49.6 1.6 -11.6517
496 1 24 49.6 1.6 -11.7172
498 1 27.2 49.6 1.6 -11.5823
500 1 30.4 49.6 1.6 -11.5862
502 1 33.6 49.6 1.6 -11.7183
504 1 36.8 49.6 1.6 -11.7201
506 1 40 49.6 1.6 -11.5344
508 3 43.2 49.6 1.6 -11.0386
510 3 46.4 49.6 1.6 -11.1285
512 3 49.6 49.6 1.6 -11.0585
513 2 0 0 3.2 -9.60389
514 1 1.6 1.6 4.8 -11.6838
515 2 3.2 0 3.2 -9.64919
516 1 4.8 1.6 4.8 -11.7508
517 3 6.4 0 3.2 -11.1596
518 1 8 1.6 4.8 -11.812
519 3 9.6 0 3.2 -11.2331
520 1 11.2 1.6 4.8 -11.6749
521 2 12.8 0 3.2 -9.53573
522 1 14.4 1.6 4.8 -11.6749
523 3 16 0 3.2 -11.1272
524 1 17.6 1.6 4.8 -11.8415
525 3 19.2 0 3.2 -11.0824
526 1 20.8 1.6 4.8 -11.8417
527 3 22.4 0 3.2 -11.2057
528 1 24 1.6 4.8 -11.8417
529 3 25.6 0 3.2 -11.166
530 1 27.2 1.6 4.8 -11.6824
531 2 28.8 0 3.2 -9.58664
532 1 30.4 1.6 4.8 -11.5943
533 3 32 0 3.2 -11.0846
534 1 33.6 1.6 4.8 -11.5861
535 3 35.2 0 3.2 -10.996
536 1 36.8 1.6 4.8 -11.5901
537 2 38.4 0 3.2 -9.69739
538 2 40 1.6 4.8 -9.58143
539 1 41.6 0 3.2 -11.5253
540 2 43.2 1.6 4.8 -9.56209
541 1 44.8 0 3.2 -11.6893
542 2 46.4 1.6 4.8 -9.51524
543 1 48 0 3.2 -11.6068
544 2 49.6 1.6 4.8 -9.59529
545 1 0 3.2 3.2 -11.4985
546 1 1.6 4.8 4.8 -11.4674
547 2 3.2 3.2 3.2 -9.53099
548 1 4.8 4.8 4.8 -11.538
549 2 6.4 3.2 3.2 -9.6706
550 1 8 4.8 4.8 -11.5665
551 3 9.6 3.2 3.2 -11.1263
552 1 11.2 4.8 4.8 -11.5924
553 3 12.8 3.2 3.2 -11.1268
554 1 14.4 4.8 4.8 -11.7836
555 3 16 3.2 3.2 -11.2432
556 1 17.6 4.8 4.8 -11.8122
557 3 19.2 3.2 3.2 -11.1642
558 1 20.8 4.8 4.8 -11.7846
559 3 22.4 3.2 3.2 -11.2051
560 1 24 4.8 4.8 -11.8124
561 3 25.6 3.2 3.2 -11.2057
562 1 27.2 4.8 4.8 -11.7451
563 3 28.8 3.2 3.2 -10.9957
564 1 30.4 4.8 4.8 -11.6229
565 2 32 3.2 3.2 -9.54525
566 1 33.6 4.8 4.8 -11.4929
567 1 35.2 3.2 3.2 -11.4204
568 2 36.8 4.8 4.8 -9.58013
569 2 38.4 3.2 3.2 -9.65387
570 1 40 4.8 4.8 -11.5484
571 1 41.6 3.2 3.2 -11.5232
572 1 43.2 4.8 4.8 -11.4029
573 1 44.8 3.2 3.2 -11.4997
574 1 46.4 4.8 4.8 -11.2634
575 1 48 3.2 3.2 -11.5468
576 3 49.6 4.8 4.8 -10.9936
577 1 0 6.4 3.2 -11.5847
578 2 1.6 8 4.8 -9.54538
579 1 3.2 6.4 3.2 -11.4909
580 2 4.8 8 4.8 -9.56136
581 1 6.4 6.4 3.2 -11.5443
582 2 8 8 4.8 -9.56192
583 1 9.6 6.4 3.2 -11.4704
584 2 11.2 8 4.8 -9.53474
585 2 12.8 6.4 3.2 -9.66429
586 2 14.4 8 4.8 -9.75599
587 3 16 6.4 3.2 -11.2001
588 1 17.6 8 4.8 -11.7789
589 2 19.2 6.4 3.2 -9.70717
590 1 20.8 8 4.8 -11.7226
591 3 22.4 6.4 3.2 -11.1251
592 1 24 8 4.8 -11.7811
593 3 25.6 6.4 3.2 -11.2057
594 1 27.2 8 4.8 -11.7808
595 3 28.8 6.4 3.2 -11.0389
596 1 30.4 8 4.8 -11.6298
597 2 32 6.4 3.2 -9.47333
598 1 33.6 8 4.8 -11.4943
599 1 35.2 6.4 3.2 -11.3907
600 1 36.8 8 4.8 -11.6303
601 2 38.4 6.4 3.2 -9.66942
602 1 40 8 4.8 -11.7183
603 2 41.6 6.4 3.2 -9.52535
604 1 43.2 8 4.8 -11.6187
605 1 44.8 6.4 3.2 -11.3642
606 1 46.4 8 4.8 -11.3991
607 1 48 6.4 3.2 -11.5175
608 3 49.6 8 4.8 -11.0837
609 1 0 9.6 3.2 -11.7195
610 3 1.6 11.2 4.8 -10.9957
611 1 3.2 9.6 3.2 -11.662
612 2 4.8 11.2 4.8 -9.64908
613 1 6.4 9.6 3.2 -11.6578
614 2 8 11.2 4.8 -9.58701
615 1 9.6 9.6 3.2 -11.5075
616 3 11.2 11.2 4.8 -11.0375
617 1 12.8 9.6 3.2 -11.5193
618 2 14.4 11.2 4.8 -9.70843
619 2 16 9.6 3.2 -9.69432
620 1 17.6 11.2 4.8 -11.5452
621 2 19.2 9.6 3.2 -9.61504
622 1 20.8 11.2 4.8 -11.7061
623 3 22.4 9.6 3.2 -11.1268
624 1 24 11.2 4.8 -11.6932
625 3 25.6 9.6 3.2 -11.0384
626 1 27.2 11.2 4.8 -11.5368
627 2 28.8 9.6 3.2 -9.56834
628 2 30.4 11.2 4.8 -9.67324
629 1 32 9.6 3.2 -11.4889
630 2 33.6 11.2 4.8 -9.73359
631 2 35.2 9.6 3.2 -9.53395
632 1 36.8 11.2 4.8 -11.6755
633 3 38.4 9.6 3.2 -11.0846
634 1 40 11.2 4.8 -11.7183
635 3 41.6 9.6 3.2 -11.1678
636 1 43.2 11.2 4.8 -11.7532
637 3 44.8 9.6 3.2 -11.0389
638 1 46.4 11.2 4.8 -11.6143
639 2 48 9.6 3.2 -9.74535
640 3 49.6 11.2 4.8 -11.0715
641 1 0 12.8 3.2 -11.5795
642 1 1.6 14.4 4.8 -11.488
643 1 3.2 12.8 3.2 -11.6193
644 2 4.8 14.4 4.8 -9.57167
645 1 6.4 12.8 3.2 -11.6554
646 1 8 14.4 4.8 -11.4205
647 1 9.6 12.8 3.2 -11.5545
648 2 11.2 14.4 4.8 -9.74946
649 2 12.8 12.8 3.2 -9.7348
650 1 14.4 14.4 4.8 -11.4688
651 2 16 12.8 3.2 -9.56149
652 1 17.6 14.4 4.8 -11.4611
653 2 19.2 12.8 3.2 -9.62595
654 2 20.8 14.4 4.8 -9.76596
655 3 22.4 12.8 3.2 -11.1111
656 2 24 14.4 4.8 -9.72984
657 1 25.6 12.8 3.2 -11.5716
658 2 27.2 14.4 4.8 -9.66658
659 1 28.8 12.8 3.2 -11.5876
660 3 30.4 14.4 4.8 -11.0837
661 1 32 12.8 3.2 -11.6881
662 3 33.6 14.4 4.8 -11.1904
663 1 35.2 12.8 3.2 -11.5359
664 2 36.8 14.4 4.8 -9.71211
665 2 38.4 12.8 3.2 -9.63285
666 1 40 14.4 4.8 -11.5915
667 2 41.6 12.8 3.2 -9.67758
668 1 43.2 14.4 4.8 -11.6643
669 3 44.8 12.8 3.2 -11.0832
670 1 46.4 14.4 4.8 -11.6167
671 2 48 12.8 3.2 -9.67052
672 1 49.6 14.4 4.8 -11.4792
673 2 0 16 3.2 -9.62698
674 1 1.6 17.6 4.8 -11.69
675 1 3.2 16 3.2 -11.6164
676 1 4.8 17.6 4.8 -11.6747
677 2 6.4 16 3.2 -9.59626
678 1 8 17.6 4.8 -11.5029
679 1 9.6 16 3.2 -11.5043
680 2 11.2 17.6 4.8 -9.64194
681 3 12.8 16 3.2 -11.1101
682 1 14.4 17.6 4.8 -11.5612
683 2 16 16 3.2 -9.55044
684 1 17.6 17.6 4.8 -11.6467
685 2 19.2 16 3.2 -9.72483
686 3 20.8 17.6 4.8 -11.1737
687 1 22.4 16 3.2 -11.6561
688 2 24 17.6 4.8 -9.61586
689 1 25.6 16 3.2 -11.6562
690 2 27.2 17.6 4.8 -9.55262
691 1 28.8 16 3.2 -11.7511
692 2 30.4 17.6 4.8 -9.69222
693 1 32 16 3.2 -11.7198
694 2 33.6 17.6 4.8 -9.67488
695 1 35.2 16 3.2 -11.6319
696 2 36.8 17.6 4.8 -9.61221
697 3 38.4 16 3.2 -11.0731
698 2 40 17.6 4.8 -9.67135
699 3 41.6 16 3.2 -11.0333
700 2 43.2 17.6 4.8 -9.73361
701 2 44.8 16 3.2 -9.72183
702 1 46.4 17.6 4.8 -11.7
703 3 48 16 3.2 -11.0769
704 1 49.6 17.6 4.8 -11.7556
705 3 0 19.2 3.2 -11.1882
706 1 1.6 20.8 4.8 -11.7574
707 2 3.2 19.2 3.2 -9.67069
708 1 4.8 20.8 4.8 -11.6905
709 2 6.4 19.2 3.2 -9.5997
710 1 8 20.8 4.8 -11.6298
711 2 9.6 19.2 3.2 -9.49249
712 1 11.2 20.8 4.8 -11.5673
713 3 12.8 19.2 3.2 -11.1668
714 1 14.4 20.8 4.8 -11.6498
715 3 16 19.2 3.2 -11.1249
716 1 17.6 20.8 4.8 -11.7574
717 2 19.2 19.2 3.2 -9.75955
718 1 20.8 20.8 4.8 -11.6699
719 1 22.4 19.2 3.2 -11.5817
720 2 24 20.8 4.8 -9.56708
721 1 25.6 19.2 3.2 -11.5029
722 1 27.2 20.8 4.8 -11.4041
723 1 28.8 19.2 3.2 -11.5568
724 2 30.4 20.8 4.8 -9.67176
725 1 32 19.2 3.2 -11.6666
726 2 33.6 20.8 4.8 -9.69121
727 1 35.2 19.2 3.2 -11.5168
728 2 36.8 20.8 4.8 -9.58355
729 1 38.4 19.2 3.2 -11.6023
730 3 40 20.8 4.8 -10.9958
731 1 41.6 19.2 3.2 -11.6412
732 2 43.2 20.8 4.8 -9.66552
733 2 44.8 19.2 3.2 -9.70943
734 1 46.4 20.8 4.8 -11.5317
735 2 48 19.2 3.2 -9.78315
736 1 49.6 20.8 4.8 -11.6855
737 2 0 22.4 3.2 -9.6711
738 1 1.6 24 4.8 -11.6516
739 3 3.2 22.4 3.2 -11.1475
740 1 4.8 24 4.8 -11.6614
741 3 6.4 22.4 3.2 -11.1887
742 1 8 24 4.8 -11.7536
743 3 9.6 22.4 3.2 -11.261
744 1 11.2 24 4.8 -11.6461
745 3 12.8 22.4 3.2 -11.155
746 1 14.4 24 4.8 -11.6811
747 3 16 22.4 3.2 -11.245
748 1 17.6 24 4.8 -11.7498
749 3 19.2 22.4 3.2 -11.1615
750 1 20.8 24 4.8 -11.6611
751 3 22.4 22.4 3.2 -11.0269
752 1 24 24 4.8 -11.452
753 2 25.6 22.4 3.2 -9.61373
754 1 27.2 24 4.8 -11.4493
755 2 28.8 22.4 3.2 -9.64639
756 1 30.4 24 4.8 -11.5504
757 1 32 22.4 3.2 -11.6747
758 2 33.6 24 4.8 -9.63337
759 1 35.2 22.4 3.2 -11.6275
760 2 36.8 24 4.8 -9.58247
761 1 38.4 22.4 3.2 -11.6275
762 2 40 24 4.8 -9.58296
763 1 41.6 22.4 3.2 -11.6265
764 2 43.2 24 4.8 -9.52069
765 1 44.8 22.4 3.2 -11.5274
766 1 46.4 24 4.8 -11.4211
767 1 48 22.4 3.2 -11.4212
768 1 49.6 24 4.8 -11.6098
769 2 0 25.6 3.2 -9.62982
771 2 3.2 25.6 3.2 -9.62776
773 2 6.4 25.6 3.2 -9.72264
775 2 9.6 25.6 3.2 -9.7278
777 2 12.8 25.6 3.2 -9.70627
779 3 16 25.6 3.2 -11.1579
781 2 19.2 25.6 3.2 -9.63668
783 1 22.4 25.6 3.2 -11.5769
785 1 25.6 25.6 3.2 -11.5603
787 1 28.8 25.6 3.2 -11.6092
789 1 32 25.6 3.2 -11.6464
791 1 35.2 25.6 3.2 -11.7511
793 1 38.4 25.6 3.2 -11.6897
795 1 41.6 25.6 3.2 -11.6972
797 2 44.8 25.6 3.2 -9.66219
799 2 48 25.6 3.2 -9.59852
770 1 1.6 27.2 4.8 -11.6333
801 3 0 28.8 3.2 -10.9947
772 1 4.8 27.2 4.8 -11.5972
803 2 3.2 28.8 3.2 -9.55092
774 1 8 27.2 4.8 -11.7205
805 2 6.4 28.8 3.2 -9.51451
776 1 11.2 27.2 4.8 -11.6885
807 3 9.6 28.8 3.2 -11.0434
778 1 14.4 27.2 4.8 -11.6927
809 2 12.8 28.8 3.2 -9.60307
780 1 17.6 27.2 4.8 -11.6233
811 2 16 28.8 3.2 -9.658
782 1 20.8 27.2 4.8 -11.4617
813 1 19.2 28.8 3.2 -11.439
784 2 24 27.2 4.8 -9.5646
815 1 22.4 28.8 3.2 -11.5374
817 1 25.6 28.8 3.2 -11.7226
786 3 27.2 27.2 4.8 -11.0376
819 1 28.8 28.8 3.2 -11.6578
788 2 30.4 27.2 4.8 -9.56815
821 1 32 28.8 3.2 -11.6897
790 3 33.6 27.2 4.8 -11.0838
823 1 35.2 28.8 3.2 -11.7811
792 3 36.8 27.2 4.8 -11.1262
825 1 38.4 28.8 3.2 -11.7223
794 2 40 27.2 4.8 -9.64875
827 1 41.6 28.8 3.2 -11.6607
796 3 43.2 27.2 4.8 -11.0399
829 1 44.8 28.8 3.2 -11.5473
798 1 46.4 27.2 4.8 -11.5597
831 2 48 28.8 3.2 -9.69392
800 1 49.6 27.2 4.8 -11.7513
802 1 1.6 30.4 4.8 -11.6586
833 2 0 32 3.2 -9.67038
804 1 4.8 30.4 4.8 -11.4502
835 1 3.2 32 3.2 -11.4874
806 1 8 30.4 4.8 -11.4842
837 1 6.4 32 3.2 -11.438
808 1 11.2 30.4 4.8 -11.5334
839 2 9.6 32 3.2 -9.53487
810 1 14.4 30.4 4.8 -11.4682
841 1 12.8 32 3.2 -11.5038
812 1 17.6 30.4 4.8 -11.5267
843 1 16 32 3.2 -11.6386
814 1 20.8 30.4 4.8 -11.4212
845 1 19.2 32 3.2 -11.5686
816 2 24 30.4 4.8 -9.67353
847 2 22.4 32 3.2 -9.70458
849 1 25.6 32 3.2 -11.7202
818 3 27.2 30.4 4.8 -11.0848
851 1 28.8 32 3.2 -11.7208
820 2 30.4 30.4 4.8 -9.58234
853 1 32 32 3.2 -11.7223
822 2 33.6 30.4 4.8 -9.67969
855 1 35.2 32 3.2 -11.7811
824 2 36.8 30.4 4.8 -9.64829
857 1 38.4 32 3.2 -11.6134
826 2 40 30.4 4.8 -9.47598
859 1 41.6 32 3.2 -11.5851
828 2 43.2 30.4 4.8 -9.67033
861 2 44.8 32 3.2 -9.73481
830 1 46.4 30.4 4.8 -11.6
863 3 48 32 3.2 -11.04
832 1 49.6 30.4 4.8 -11.7323
834 2 1.6 33.6 4.8 -9.7007
865 1 0 35.2 3.2 -11.5839
836 2 4.8 33.6 4.8 -9.59393
867 1 3.2 35.2 3.2 -11.7172
838 2 8 33.6 4.8 -9.62971
869 1 6.4 35.2 3.2 -11.6889
840 2 11.2 33.6 4.8 -9.59337
871 1 9.6 35.2 3.2 -11.7305
842 2 14.4 33.6 4.8 -9.69073
873 1 12.8 35.2 3.2 -11.7508
844 3 17.6 33.6 4.8 -11.0752
875 1 16 35.2 3.2 -11.8122
846 1 20.8 33.6 4.8 -11.5611
877 1 19.2 35.2 3.2 -11.6498
848 1 24 33.6 4.8 -11.6016
879 2 22.4 35.2 3.2 -9.68686
881 1 25.6 35.2 3.2 -11.6946
850 3 27.2 33.6 4.8 -11.0852
883 1 28.8 35.2 3.2 -11.7532
852 2 30.4 33.6 4.8 -9.70706
885 1 32 35.2 3.2 -11.7528
854 3 33.6 33.6 4.8 -11.1654
887 1 35.2 35.2 3.2 -11.7498
856 3 36.8 33.6 4.8 -11.1639
889 1 38.4 35.2 3.2 -11.6216
858 2 40 33.6 4.8 -9.61162
891 2 41.6 35.2 3.2 -9.63297
860 2 43.2 33.6 4.8 -9.67573
893 3 44.8 35.2 3.2 -10.9911
862 1 46.4 33.6 4.8 -11.6351
895 2 48 35.2 3.2 -9.56024
864 1 49.6 33.6 4.8 -11.6102
866 3 1.6 36.8 4.8 -11.1271
897 1 0 38.4 3.2 -11.4998
868 3 4.8 36.8 4.8 -11.2057
899 1 3.2 38.4 3.2 -11.7811
870 3 8 36.8 4.8 -11.1251
901 1 6.4 38.4 3.2 -11.8124
872 3 11.2 36.8 4.8 -11.1673
903 1 9.6 38.4 3.2 -11.7831
874 3 14.4 36.8 4.8 -11.1651
905 1 12.8 38.4 3.2 -11.8124
876 3 17.6 36.8 4.8 -11.0851
907 1 16 38.4 3.2 -11.8415
878 1 20.8 36.8 4.8 -11.5086
909 1 19.2 38.4 3.2 -11.6841
880 2 24 36.8 4.8 -9.67215
911 1 22.4 38.4 3.2 -11.5303
913 1 25.6 38.4 3.2 -11.5519
882 3 27.2 36.8 4.8 -11.1671
915 1 28.8 38.4 3.2 -11.6098
884 3 30.4 36.8 4.8 -11.166
917 1 32 38.4 3.2 -11.7012
886 3 33.6 36.8 4.8 -11.0835
919 1 35.2 38.4 3.2 -11.6
888 2 36.8 36.8 4.8 -9.64004
921 2 38.4 38.4 3.2 -9.5686
890 1 40 36.8 4.8 -11.6465
923 2 41.6 38.4 3.2 -9.61563
892 1 43.2 36.8 4.8 -11.6313
925 2 44.8 38.4 3.2 -9.51451
894 1 46.4 36.8 4.8 -11.5073
927 1 48 38.4 3.2 -11.2869
896 2 49.6 36.8 4.8 -9.56501
898 2 1.6 40 4.8 -9.61516
929 1 0 41.6 3.2 -11.5192
900 3 4.8 40 4.8 -11.1243
931 1 3.2 41.6 3.2 -11.698
902 3 8 40 4.8 -11.1246
933 1 6.4 41.6 3.2 -11.7183
904 2 11.2 40 4.8 -9.677
935 1 9.6 41.6 3.2 -11.7208
906 3 14.4 40 4.8 -11.2051
937 1 12.8 41.6 3.2 -11.7811
908 3 17.6 40 4.8 -11.1653
939 1 16 41.6 3.2 -11.8417
910 2 20.8 40 4.8 -9.67023
941 1 19.2 41.6 3.2 -11.6435
912 2 24 40 4.8 -9.62184
943 1 22.4 41.6 3.2 -11.497
945 2 25.6 41.6 3.2 -9.62623
914 3 27.2 40 4.8 -11.1581
947 2 28.8 41.6 3.2 -9.71055
916 3 30.4 40 4.8 -11.0805
949 1 32 41.6 3.2 -11.6293
918 2 33.6 40 4.8 -9.57992
951 1 35.2 41.6 3.2 -11.5606
920 1 36.8 40 4.8 -11.4888
953 2 38.4 41.6 3.2 -9.66023
922 1 40 40 4.8 -11.6607
955 3 41.6 41.6 3.2 -10.9905
924 1 43.2 40 4.8 -11.6612
957 2 44.8 41.6 3.2 -9.61776
926 1 46.4 40 4.8 -11.3893
959 1 48 41.6 3.2 -11.2456
928 2 49.6 40 4.8 -9.43368
930 2 1.6 43.2 4.8 -9.73024
961 1 0 44.8 3.2 -11.5489
932 2 4.8 43.2 4.8 -9.66488
963 2 3.2 44.8 3.2 -9.63865
934 2 8 43.2 4.8 -9.50946
965 1 6.4 44.8 3.2 -11.5347
936 2 11.2 43.2 4.8 -9.54981
967 1 9.6 44.8 3.2 -11.55
938 3 14.4 43.2 4.8 -11.1654
969 1 12.8 44.8 3.2 -11.6409
940 3 17.6 43.2 4.8 -11.0824
971 1 16 44.8 3.2 -11.8178
942 1 20.8 43.2 4.8 -11.4985
973 1 19.2 44.8 3.2 -11.6622
944 1 24 43.2 4.8 -11.572
975 2 22.4 44.8 3.2 -9.69372
977 3 25.6 44.8 3.2 -11.1603
946 2 27.2 43.2 4.8 -9.7083
979 3 28.8 44.8 3.2 -11.1518
948 2 30.4 43.2 4.8 -9.69838
981 1 32 44.8 3.2 -11.5841
950 2 33.6 43.2 4.8 -9.62721
983 2 35.2 44.8 3.2 -9.67572
952 2 36.8 43.2 4.8 -9.60854
985 3 38.4 44.8 3.2 -10.9823
954 1 40 43.2 4.8 -11.5745
987 1 41.6 44.8 3.2 -11.5774
956 1 43.2 43.2 4.8 -11.6728
989 2 44.8 44.8 3.2 -9.63238
958 1 46.4 43.2 4.8 -11.4819
991 1 48 44.8 3.2 -11.4677
960 2 49.6 43.2 4.8 -9.59887
962 1 1.6 46.4 4.8 -11.6647
993 3 0 48 3.2 -11.068
964 1 4.8 46.4 4.8 -11.5674
995 2 3.2 48 3.2 -9.62947
966 1 8 46.4 4.8 -11.418
997 2 6.4 48 3.2 -9.70003
968 1 11.2 46.4 4.8 -11.3832
999 3 9.6 48 3.2 -11.161
970 2 14.4 46.4 4.8 -9.68707
1001 1 12.8 48 3.2 -11.4943
972 3 17.6 46.4 4.8 -11.1137
1003 2 16 48 3.2 -9.65886
974 2 20.8 46.4 4.8 -9.69897
1005 1 19.2 48 3.2 -11.5264
976 1 24 46.4 4.8 -11.7579
1007 3 22.4 48 3.2 -11.1573
1009 3 25.6 48 3.2 -11.1663
978 1 27.2 46.4 4.8 -11.7293
1011 2 28.8 48 3.2 -9.68902
980 2 30.4 46.4 4.8 -9.6715
1013 2 32 48 3.2 -9.66461
982 2 33.6 46.4 4.8 -9.64343
1015 2 35.2 48 3.2 -9.59822
984 1 36.8 46.4 4.8 -11.5849
1017 2 38.4 48 3.2 -9.62795
986 1 40 46.4 4.8 -11.5348
1019 1 41.6 48 3.2 -11.5604
988 2 43.2 46.4 4.8 -9.7228
1021 1 44.8 48 3.2 -11.7005
990 1 46.4 46.4 4.8 -11.6025
1023 1 48 48 3.2 -11.5806
992 1 49.6 46.4 4.8 -11.6003
994 1 1.6 49.6 4.8 -11.7503
996 1 4.8 49.6 4.8 -11.7201
998 1 8 49.6 4.8 -11.7786
1000 1 11.2 49.6 4.8 -11.4883
1002 1 14.4 49.6 4.8 -11.5222
1004 1 17.6 49.6 4.8 -11.6801
1006 1 20.8 49.6 4.8 -11.6495
1008 1 24 49.6 4.8 -11.8122
1010 1 27.2 49.6 4.8 -11.7183
1012 1 30.4 49.6 4.8 -11.6671
1014 1 33.6 49.6 4.8 -11.6303
1016 1 36.8 49.6 4.8 -11.5486
1018 1 40 49.6 4.8 -11.5444
1020 2 43.2 49.6 4.8 -9.69493
1022 2 46.4 49.6 4.8 -9.56973
1024 1 49.6 49.6 4.8 -11.6736
1025 3 0 0 6.4 -11.124
1026 1 1.6 1.6 8 -11.7806
1027 3 3.2 0 6.4 -11.1667
1028 1 4.8 1.6 8 -11.7811
1029 3 6.4 0 6.4 -11.1651
1030 1 8 1.6 8 -11.7846
1031 3 9.6 0 6.4 -11.083
1032 1 11.2 1.6 8 -11.4512
1033 1 12.8 0 6.4 -11.3192
1034 1 14.4 1.6 8 -11.4076
1035 3 16 0 6.4 -11.116
1036 1 17.6 1.6 8 -11.7144
1037 3 19.2 0 6.4 -11.1653
1038 1 20.8 1.6 8 -11.8144
1039 3 22.4 0 6.4 -11.1654
1040 1 24 1.6 8 -11.7808
1041 3 25.6 0 6.4 -11.166
1042 1 27.2 1.6 8 -11.6156
1043 2 28.8 0 6.4 -9.51332
1044 1 30.4 1.6 8 -11.555
1045 2 32 0 6.4 -9.61831
1046 1 33.6 1.6 8 -11.6897
1047 2 35.2 0 6.4 -9.55311
1048 1 36.8 1.6 8 -11.5806
1049 2 38.4 0 6.4 -9.57175
1050 1 40 1.6 8 -11.5521
1051 1 41.6 0 6.4 -11.6107
1052 2 43.2 1.6 8 -9.6323
1053 1 44.8 0 6.4 -11.5637
1054 2 46.4 1.6 8 -9.367
1055 1 48 0 6.4 -11.4586
1056 1 49.6 1.6 8 -11.5262
1057 3 0 3.2 6.4 -11.1522
1058 1 1.6 4.8 8 -11.6865
1059 3 3.2 3.2 6.4 -11.0833
1060 1 4.8 4.8 8 -11.7255
1061 3 6.4 3.2 6.4 -11.1674
1062 1 8 4.8 8 -11.667
1063 3 9.6 3.2 6.4 -11.0386
1064 1 11.2 4.8 8 -11.4774
1065 2 12.8 3.2 6.4 -9.5132
1066 1 14.4 4.8 8 -11.6114
1067 3 16 3.2 6.4 -11.1666
1068 1 17.6 4.8 8 -11.8124
1069 3 19.2 3.2 6.4 -11.2426
1070 1 20.8 4.8 8 -11.8122
1071 3 22.4 3.2 6.4 -11.2036
1072 1 24 4.8 8 -11.8124
1073 3 25.6 3.2 6.4 -11.1235
1074 1 27.2 4.8 8 -11.7096
1075 1 28.8 3.2 6.4 -11.3761
1076 1 30.4 4.8 8 -11.6192
1077 2 32 3.2 6.4 -9.47557
1078 1 33.6 4.8 8 -11.6893
1079 2 35.2 3.2 6.4 -9.52483
1080 1 36.8 4.8 8 -11.6314
1081 1 38.4 3.2 6.4 -11.4525
1082 1 40 4.8 8 -11.5812
1083 2 41.6 3.2 6.4 -9.53385
1084 1 43.2 4.8 8 -11.6841
1085 1 44.8 3.2 6.4 -11.4626
1086 1 46.4 4.8 8 -11.4694
1087 1 48 3.2 6.4 -11.4488
1088 2 49.6 4.8 8 -9.66901
1089 1 0 6.4 6.4 -11.618
1090 2 1.6 8 8 -9.63973
1091 1 3.2 6.4 6.4 -11.491
1092 2 4.8 8 8 -9.76151
1093 2 6.4 6.4 6.4 -9.60209
1094 2 8 8 8 -9.67701
1095 1 9.6 6.4 6.4 -11.4534
1096 1 11.2 8 8 -11.5446
1097 2 12.8 6.4 6.4 -9.59413
1098 1 14.4 8 8 -11.6981
1099 3 16 6.4 6.4 -11.2758
1100 1 17.6 8 8 -11.8117
1101 3 19.2 6.4 6.4 -11.1642
1102 1 20.8 8 8 -11.8102