ITEM: TIMESTEP
0
ITEM: NUMBER OF ATOMS
8192
ITEM: BOX BOUNDS pp pp pp
0.0000000000000000e+00 5.1200000000000003e+01
0.0000000000000000e+00 5.1200000000000003e+01
0.0000000000000000e+00 5.1200000000000003e+01
ITEM: ATOMS id type x y z c_eng
1 1 0 0 0 -11.6547
2 2 1.6 1.6 1.6 -9.70462
3 1 3.2 0 0 -11.6477
4 2 4.8 1.6 1.6 -9.72667
5 2 6.4 0 0 -9.71732
6 1 8 1.6 1.6 -11.5384
7 1 9.6 0 0 -11.4711
8 1 11.2 1.6 1.6 -11.5127
9 2 12.8 0 0 -9.60201
10 1 14.4 1.6 1.6 -11.6889
11 2 16 0 0 -9.60495
12 1 17.6 1.6 1.6 -11.7508
13 2 19.2 0 0 -9.67312
14 1 20.8 1.6 1.6 -11.7203
15 2 22.4 0 0 -9.67408
16 1 24 1.6 1.6 -11.7501
17 3 25.6 0 0 -11.2025
18 1 27.2 1.6 1.6 -11.8379
19 3 28.8 0 0 -11.2753
20 1 30.4 1.6 1.6 -11.8122
21 3 32 0 0 -11.2426
22 1 33.6 1.6 1.6 -11.8124
23 3 35.2 0 0 -11.2036
24 1 36.8 1.6 1.6 -11.7811
25 3 38.4 0 0 -11.083
26 1 40 1.6 1.6 -11.4766
27 1 41.6 0 0 -11.5223
28 3 43.2 1.6 1.6 -11.0397
29 1 44.8 0 0 -11.7808
30 3 46.4 1.6 1.6 -11.1657
31 1 48 0 0 -11.7508
32 3 49.6 1.6 1.6 -11.2039
33 1 0 3.2 0 -11.8122
34 3 1.6 4.8 1.6 -11.1666
35 1 3.2 3.2 0 -11.7499
36 2 4.8 4.8 1.6 -9.66232
37 1 6.4 3.2 0 -11.7015
38 2 8 4.8 1.6 -9.56771
39 1 9.6 3.2 0 -11.4296
40 1 11.2 4.8 1.6 -11.5559
41 2 12.8 3.2 0 -9.62971
42 1 14.4 4.8 1.6 -11.7504
43 3 16 3.2 0 -11.1258
44 1 17.6 4.8 1.6 -11.8417
45 3 19.2 3.2 0 -11.0381
46 1 20.8 4.8 1.6 -11.7808
47 2 22.4 3.2 0 -9.66306
48 1 24 4.8 1.6 -11.7546
49 3 25.6 3.2 0 -11.2033
50 1 27.2 4.8 1.6 -11.6885
51 3 28.8 3.2 0 -11.1218
52 1 30.4 4.8 1.6 -11.6893
53 3 32 3.2 0 -11.166
54 1 33.6 4.8 1.6 -11.7187
55 3 35.2 3.2 0 -11.2048
56 1 36.8 4.8 1.6 -11.7187
57 3 38.4 3.2 0 -11.0827
58 1 40 4.8 1.6 -11.5615
59 1 41.6 3.2 0 -11.5358
60 2 43.2 4.8 1.6 -9.67336
61 1 44.8 3.2 0 -11.7176
62 2 46.4 4.8 1.6 -9.65938
63 1 48 3.2 0 -11.7811
64 3 49.6 4.8 1.6 -11.1246
65 1 0 6.4 0 -11.7508
66 3 1.6 8 1.6 -11.1243
67 1 3.2 6.4 0 -11.7831
68 3 4.8 8 1.6 -11.1657
69 1 6.4 6.4 0 -11.7806
70 3 8 8 1.6 -11.1272
71 1 9.6 6.4 0 -11.6313
72 2 11.2 8 1.6 -9.62945
73 2 12.8 6.4 0 -9.70499
74 1 14.4 8 1.6 -11.7881
75 3 16 6.4 0 -11.1651
76 1 17.6 8 1.6 -11.8417
77 3 19.2 6.4 0 -11.2054
78 1 20.8 8 1.6 -11.8122
79 3 22.4 6.4 0 -11.2301
80 1 24 8 1.6 -11.7564
81 2 25.6 6.4 0 -9.76063
82 1 27.2 8 1.6 -11.6377
83 2 28.8 6.4 0 -9.60444
84 1 30.4 8 1.6 -11.5685
85 2 32 6.4 0 -9.5935
86 1 33.6 8 1.6 -11.566
87 2 35.2 6.4 0 -9.61516
88 1 36.8 8 1.6 -11.6275
89 2 38.4 6.4 0 -9.64852
90 1 40 8 1.6 -11.6578
91 2 41.6 6.4 0 -9.60368
92 1 43.2 8 1.6 -11.6624
93 1 44.8 6.4 0 -11.5488
94 1 46.4 8 1.6 -11.614
95 1 48 6.4 0 -11.6286
96 2 49.6 8 1.6 -9.73024
97 1 0 9.6 0 -11.6003
98 2 1.6 11.2 1.6 -9.61586
99 1 3.2 9.6 0 -11.7511
100 3 4.8 11.2 1.6 -11.1668
101 1 6.4 9.6 0 -11.8122
102 3 8 11.2 1.6 -11.0851
103 1 9.6 9.6 0 -11.661
104 2 11.2 11.2 1.6 -9.69925
105 3 12.8 9.6 0 -11.1577
106 1 14.4 11.2 1.6 -11.7568
107 3 16 9.6 0 -11.2045
108 1 17.6 11.2 1.6 -11.8124
109 3 19.2 9.6 0 -11.2048
110 1 20.8 11.2 1.6 -11.7811
111 2 22.4 9.6 0 -9.71894
112 1 24 11.2 1.6 -11.6534
113 2 25.6 9.6 0 -9.67641
114 2 27.2 11.2 1.6 -9.70009
115 1 28.8 9.6 0 -11.6175
116 3 30.4 11.2 1.6 -11.1146
117 1 32 9.6 0 -11.5276
118 2 33.6 11.2 1.6 -9.59795
119 2 35.2 9.6 0 -9.52578
120 1 36.8 11.2 1.6 -11.5788
121 3 38.4 9.6 0 -11.04
122 1 40 11.2 1.6 -11.6893
123 3 41.6 9.6 0 -11.1668
124 1 43.2 11.2 1.6 -11.7811
125 3 44.8 9.6 0 -11.1252
126 1 46.4 11.2 1.6 -11.7875
127 2 48 9.6 0 -9.77041
128 2 49.6 11.2 1.6 -9.65009
129 1 0 12.8 0 -11.5219
130 2 1.6 14.4 1.6 -9.5695
131 1 3.2 12.8 0 -11.6569
132 2 4.8 14.4 1.6 -9.60522
133 1 6.4 12.8 0 -11.6097
134 2 8 14.4 1.6 -9.61088
135 1 9.6 12.8 0 -11.5515
136 2 11.2 14.4 1.6 -9.73695
137 2 12.8 12.8 0 -9.69943
138 1 14.4 14.4 1.6 -11.7836
139 2 16 12.8 0 -9.70706
140 1 17.6 14.4 1.6 -11.7831
141 3 19.2 12.8 0 -11.1251
142 1 20.8 14.4 1.6 -11.6464
143 2 22.4 12.8 0 -9.6292
144 1 24 14.4 1.6 -11.5285
145 1 25.6 12.8 0 -11.5535
146 2 27.2 14.4 1.6 -9.66254
147 1 28.8 12.8 0 -11.6907
148 3 30.4 14.4 1.6 -11.1257
149 1 32 12.8 0 -11.5812
150 2 33.6 14.4 1.6 -9.61575
151 1 35.2 12.8 0 -11.4003
152 2 36.8 14.4 1.6 -9.62703
153 2 38.4 12.8 0 -9.66292
154 1 40 14.4 1.6 -11.6666
155 3 41.6 12.8 0 -11.1238
156 1 43.2 14.4 1.6 -11.7511
157 3 44.8 12.8 0 -11.2051
158 1 46.4 14.4 1.6 -11.7508
159 2 48 12.8 0 -9.62877
160 1 49.6 14.4 1.6 -11.5788
161 2 0 16 0 -9.70245
162 1 1.6 17.6 1.6 -11.5597
163 1 3.2 16 0 -11.4878
164 1 4.8 17.6 1.6 -11.4071
165 1 6.4 16 0 -11.4245
166 1 8 17.6 1.6 -11.5984
167 2 9.6 16 0 -9.66426
168 1 11.2 17.6 1.6 -11.7836
169 3 12.8 16 0 -11.1997
170 1 14.4 17.6 1.6 -11.8415
171 3 16 16 0 -11.1651
172 1 17.6 17.6 1.6 -11.7811
173 3 19.2 16 0 -11.1265
174 1 20.8 17.6 1.6 -11.5545
175 2 22.4 16 0 -9.60782
176 2 24 17.6 1.6 -9.53128
177 1 25.6 16 0 -11.5633
178 3 27.2 17.6 1.6 -11.0838
179 1 28.8 16 0 -11.7583
180 3 30.4 17.6 1.6 -11.2051
181 1 32 16 0 -11.7205
182 2 33.6 17.6 1.6 -9.67712
183 1 35.2 16 0 -11.6386
184 2 36.8 17.6 1.6 -9.66946
185 2 38.4 16 0 -9.63855
186 1 40 17.6 1.6 -11.4207
187 2 41.6 16 0 -9.54512
188 1 43.2 17.6 1.6 -11.5835
189 3 44.8 16 0 -11.2065
190 1 46.4 17.6 1.6 -11.7217
191 3 48 16 0 -11.0406
192 1 49.6 17.6 1.6 -11.626
193 2 0 19.2 0 -9.65966
194 1 1.6 20.8 1.6 -11.5339
195 1 3.2 19.2 0 -11.4325
196 1 4.8 20.8 1.6 -11.5634
197 2 6.4 19.2 0 -9.51941
198 1 8 20.8 1.6 -11.6911
199 3 9.6 19.2 0 -11.0835
200 1 11.2 20.8 1.6 -11.7242
201 3 12.8 19.2 0 -11.1657
202 1 14.4 20.8 1.6 -11.7508
203 3 16 19.2 0 -11.2051
204 1 17.6 20.8 1.6 -11.722
205 3 19.2 19.2 0 -11.1249
206 1 20.8 20.8 1.6 -11.6308
207 2 22.4 19.2 0 -9.63771
208 2 24 20.8 1.6 -9.70262
209 1 25.6 19.2 0 -11.6084
210 3 27.2 20.8 1.6 -11.0843
211 1 28.8 19.2 0 -11.7508
212 3 30.4 20.8 1.6 -11.2051
213 1 32 19.2 0 -11.7831
214 3 33.6 20.8 1.6 -11.2045
215 1 35.2 19.2 0 -11.7201
216 3 36.8 20.8 1.6 -11.1257
217 1 38.4 19.2 0 -11.5918
218 3 40 20.8 1.6 -11.04
219 1 41.6 19.2 0 -11.4722
220 2 43.2 20.8 1.6 -9.57096
221 3 44.8 19.2 0 -11.0381
222 1 46.4 20.8 1.6 -11.5613
223 2 48 19.2 0 -9.73206
224 1 49.6 20.8 1.6 -11.625
225 1 0 22.4 0 -11.6466
226 2 1.6 24 1.6 -9.66671
227 1 3.2 22.4 0 -11.5687
228 2 4.8 24 1.6 -9.66196
229 2 6.4 22.4 0 -9.6741
230 1 8 24 1.6 -11.5381
231 2 9.6 22.4 0 -9.62931
232 1 11.2 24 1.6 -11.5626
233 2 12.8 22.4 0 -9.69613
234 1 14.4 24 1.6 -11.5929
235 3 16 22.4 0 -11.1511
236 1 17.6 24 1.6 -11.5444
237 2 19.2 22.4 0 -9.65674
238 1 20.8 24 1.6 -11.4179
239 2 22.4 22.4 0 -9.67121
240 2 24 24 1.6 -9.63802
241 1 25.6 22.4 0 -11.5969
242 2 27.2 24 1.6 -9.58664
243 1 28.8 22.4 0 -11.6897
244 3 30.4 24 1.6 -11.1254
245 1 32 22.4 0 -11.7811
246 3 33.6 24 1.6 -11.242
247 1 35.2 22.4 0 -11.8124
248 3 36.8 24 1.6 -11.2426
249 1 38.4 22.4 0 -11.8124
250 3 40 24 1.6 -11.1243
251 1 41.6 22.4 0 -11.6442
252 2 43.2 24 1.6 -9.50958
253 1 44.8 22.4 0 -11.4921
254 1 46.4 24 1.6 -11.4375
255 2 48 22.4 0 -9.66163
256 1 49.6 24 1.6 -11.6446
257 2 0 25.6 0 -9.56892
259 1 3.2 25.6 0 -11.5206
261 1 6.4 25.6 0 -11.4359
263 1 9.6 25.6 0 -11.3643
265 1 12.8 25.6 0 -11.4197
267 1 16 25.6 0 -11.5546
269 1 19.2 25.6 0 -11.4826
271 1 22.4 25.6 0 -11.6007
273 1 25.6 25.6 0 -11.6889
275 1 28.8 25.6 0 -11.7208
277 1 32 25.6 0 -11.7811
279 1 35.2 25.6 0 -11.8417
281 1 38.4 25.6 0 -11.7811
283 1 41.6 25.6 0 -11.6582
285 1 44.8 25.6 0 -11.5657
287 2 48 25.6 0 -9.71018
258 1 1.6 27.2 1.6 -11.5663
289 2 0 28.8 0 -9.54884
260 1 4.8 27.2 1.6 -11.5451
291 2 3.2 28.8 0 -9.6278
262 1 8 27.2 1.6 -11.4902
293 2 6.4 28.8 0 -9.66194
264 1 11.2 27.2 1.6 -11.4534
295 2 9.6 28.8 0 -9.58944
266 1 14.4 27.2 1.6 -11.4707
297 1 12.8 28.8 0 -11.5397
268 2 17.6 27.2 1.6 -9.57371
299 1 16 28.8 0 -11.6167
270 2 20.8 27.2 1.6 -9.57993
301 1 19.2 28.8 0 -11.7205
272 3 24 27.2 1.6 -11.0411
303 1 22.4 28.8 0 -11.786
305 1 25.6 28.8 0 -11.6806
274 3 27.2 27.2 1.6 -11.0418
307 1 28.8 28.8 0 -11.7151
276 3 30.4 27.2 1.6 -11.2057
309 1 32 28.8 0 -11.7846
278 3 33.6 27.2 1.6 -11.2426
311 1 35.2 28.8 0 -11.7511
280 3 36.8 27.2 1.6 -11.1654
313 1 38.4 28.8 0 -11.5823
282 2 40 27.2 1.6 -9.54473
315 1 41.6 28.8 0 -11.566
284 2 43.2 27.2 1.6 -9.54977
317 1 44.8 28.8 0 -11.6067
286 2 46.4 27.2 1.6 -9.562
319 2 48 28.8 0 -9.70078
288 1 49.6 27.2 1.6 -11.6324
290 1 1.6 30.4 1.6 -11.567
321 2 0 32 0 -9.69269
292 1 4.8 30.4 1.6 -11.5461
323 2 3.2 32 0 -9.60778
294 1 8 30.4 1.6 -11.5665
325 1 6.4 32 0 -11.6763
296 1 11.2 30.4 1.6 -11.4871
327 1 9.6 32 0 -11.6076
298 3 14.4 30.4 1.6 -10.952
329 1 12.8 32 0 -11.585
300 2 17.6 30.4 1.6 -9.5864
331 1 16 32 0 -11.723
302 3 20.8 30.4 1.6 -11.126
333 1 19.2 32 0 -11.7811
304 2 24 30.4 1.6 -9.61367
335 1 22.4 32 0 -11.8122
337 1 25.6 32 0 -11.6753
306 1 27.2 30.4 1.6 -11.3738
339 1 28.8 32 0 -11.7096
308 3 30.4 30.4 1.6 -11.0813
341 1 32 32 0 -11.7811
310 3 33.6 30.4 1.6 -11.1248
343 1 35.2 32 0 -11.6573
312 2 36.8 30.4 1.6 -9.57931
345 1 38.4 32 0 -11.5366
314 1 40 30.4 1.6 -11.3919
347 2 41.6 32 0 -9.67392
316 2 43.2 30.4 1.6 -9.58874
349 3 44.8 32 0 -11.1575
318 1 46.4 30.4 1.6 -11.6386
351 3 48 32 0 -11.1268
320 1 49.6 30.4 1.6 -11.6573
322 2 1.6 33.6 1.6 -9.57054
353 2 0 35.2 0 -9.70138
324 2 4.8 33.6 1.6 -9.70574
355 1 3.2 35.2 0 -11.7084
326 2 8 33.6 1.6 -9.66904
357 1 6.4 35.2 0 -11.7504
328 2 11.2 33.6 1.6 -9.59336
359 1 9.6 35.2 0 -11.7205
330 2 14.4 33.6 1.6 -9.64841
361 1 12.8 35.2 0 -11.7187
332 3 17.6 33.6 1.6 -11.1246
363 1 16 35.2 0 -11.7811
334 3 20.8 33.6 1.6 -11.2045
365 1 19.2 35.2 0 -11.8417
336 3 24 33.6 1.6 -11.166
367 1 22.4 35.2 0 -11.8124
369 1 25.6 35.2 0 -11.7205
338 2 27.2 33.6 1.6 -9.62096
371 1 28.8 35.2 0 -11.6891
340 3 30.4 33.6 1.6 -11.1249
373 1 32 35.2 0 -11.6805
342 3 33.6 33.6 1.6 -11.1269
375 1 35.2 35.2 0 -11.5543
344 2 36.8 33.6 1.6 -9.5255
377 2 38.4 35.2 0 -9.60874
346 1 40 33.6 1.6 -11.5145
379 2 41.6 35.2 0 -9.66959
348 1 43.2 33.6 1.6 -11.7245
381 3 44.8 35.2 0 -11.1279
350 1 46.4 33.6 1.6 -11.7525
383 2 48 35.2 0 -9.69948
352 1 49.6 33.6 1.6 -11.6758
354 2 1.6 36.8 1.6 -9.69223
385 1 0 38.4 0 -11.7013
356 3 4.8 36.8 1.6 -11.126
387 1 3.2 38.4 0 -11.7205
358 2 8 36.8 1.6 -9.677
389 1 6.4 38.4 0 -11.7831
360 3 11.2 36.8 1.6 -11.1651
391 1 9.6 38.4 0 -11.8124
362 3 14.4 36.8 1.6 -11.2048
393 1 12.8 38.4 0 -11.8417
364 3 17.6 36.8 1.6 -11.1651
395 1 16 38.4 0 -11.8124
366 3 20.8 36.8 1.6 -11.166
397 1 19.2 38.4 0 -11.7511
368 3 24 36.8 1.6 -11.084
399 1 22.4 38.4 0 -11.6103
401 1 25.6 38.4 0 -11.5051
370 2 27.2 36.8 1.6 -9.51413
403 1 28.8 38.4 0 -11.41
372 2 30.4 36.8 1.6 -9.69701
405 3 32 38.4 0 -11.0662
374 2 33.6 36.8 1.6 -9.62879
407 2 35.2 38.4 0 -9.66196
376 1 36.8 36.8 1.6 -11.5547
409 3 38.4 38.4 0 -11.1217
378 1 40 36.8 1.6 -11.6146
411 2 41.6 38.4 0 -9.6257
380 1 43.2 36.8 1.6 -11.6915
413 2 44.8 38.4 0 -9.63324
382 1 46.4 36.8 1.6 -11.5524
415 1 48 38.4 0 -11.5009
384 2 49.6 36.8 1.6 -9.63855
386 3 1.6 40 1.6 -11.1249
417 1 0 41.6 0 -11.6915
388 3 4.8 40 1.6 -11.167
419 1 3.2 41.6 0 -11.7187
390 3 8 40 1.6 -11.2045
421 1 6.4 41.6 0 -11.7811
392 3 11.2 40 1.6 -11.2036
423 1 9.6 41.6 0 -11.8124
394 3 14.4 40 1.6 -11.2042
425 1 12.8 41.6 0 -11.7846
396 2 17.6 40 1.6 -9.67712
427 1 16 41.6 0 -11.7831
398 2 20.8 40 1.6 -9.61784
429 1 19.2 41.6 0 -11.7505
400 2 24 40 1.6 -9.53077
431 1 22.4 41.6 0 -11.5792
433 2 25.6 41.6 0 -9.52581
402 1 27.2 40 1.6 -11.439
435 2 28.8 41.6 0 -9.54563
404 1 30.4 40 1.6 -11.4432
437 2 32 41.6 0 -9.58665
406 1 33.6 40 1.6 -11.6158
439 3 35.2 41.6 0 -11.0829
408 1 36.8 40 1.6 -11.7216
441 3 38.4 41.6 0 -11.1671
410 1 40 40 1.6 -11.7528
443 2 41.6 41.6 0 -9.66171
412 1 43.2 40 1.6 -11.7198
445 3 44.8 41.6 0 -11.1078
414 1 46.4 40 1.6 -11.5021
447 1 48 41.6 0 -11.5497
416 2 49.6 40 1.6 -9.5455
418 3 1.6 43.2 1.6 -11.1634
449 1 0 44.8 0 -11.6621
420 3 4.8 43.2 1.6 -11.0413
451 1 3.2 44.8 0 -11.6907
422 3 8 43.2 1.6 -11.2057
453 1 6.4 44.8 0 -11.8134
424 2 11.2 43.2 1.6 -9.73533
455 1 9.6 44.8 0 -11.8122
426 3 14.4 43.2 1.6 -11.1232
457 1 12.8 44.8 0 -11.7245
428 3 17.6 43.2 1.6 -11.166
459 1 16 44.8 0 -11.7223
430 3 20.8 43.2 1.6 -11.1549
461 1 19.2 44.8 0 -11.7833
432 1 24 43.2 1.6 -11.6314
463 2 22.4 44.8 0 -9.65546
465 3 25.6 44.8 0 -11.0849
434 1 27.2 43.2 1.6 -11.7176
467 3 28.8 44.8 0 -11.2051
436 1 30.4 43.2 1.6 -11.6555
469 3 32 44.8 0 -11.1243
438 1 33.6 43.2 1.6 -11.6308
471 2 35.2 44.8 0 -9.70717
440 1 36.8 43.2 1.6 -11.722
473 3 38.4 44.8 0 -11.0843
442 1 40 43.2 1.6 -11.7525
475 2 41.6 44.8 0 -9.70253
444 1 43.2 43.2 1.6 -11.6613
477 1 44.8 44.8 0 -11.5578
446 1 46.4 43.2 1.6 -11.4172
479 1 48 44.8 0 -11.5189
448 2 49.6 43.2 1.6 -9.58388
450 2 1.6 46.4 1.6 -9.66906
481 1 0 48 0 -11.5663
452 2 4.8 46.4 1.6 -9.73157
483 1 3.2 48 0 -11.5916
454 3 8 46.4 1.6 -11.1152
485 2 6.4 48 0 -9.77528
456 3 11.2 46.4 1.6 -11.0843
487 1 9.6 48 0 -11.7139
458 2 14.4 46.4 1.6 -9.61465
489 1 12.8 48 0 -11.6549
460 3 17.6 46.4 1.6 -11.0365
491 1 16 48 0 -11.5276
462 2 20.8 46.4 1.6 -9.76087
493 1 19.2 48 0 -11.6073
464 1 24 46.4 1.6 -11.6289
495 1 22.4 48 0 -11.5252
497 2 25.6 48 0 -9.66145
466 1 27.2 46.4 1.6 -11.7811
499 3 28.8 48 0 -11.2045
468 1 30.4 46.4 1.6 -11.7806
501 3 32 48 0 -11.2039
470 1 33.6 46.4 1.6 -11.7572
503 3 35.2 48 0 -11.2045
472 1 36.8 46.4 1.6 -11.7508
505 3 38.4 48 0 -11.1677
474 1 40 46.4 1.6 -11.7007
507 2 41.6 48 0 -9.63272
476 2 43.2 46.4 1.6 -9.7028
509 1 44.8 48 0 -11.6931
478 2 46.4 46.4 1.6 -9.5092
511 1 48 48 0 -11.6275
480 2 49.6 46.4 1.6 -9.69131
482 1 1.6 49.6 1.6 -11.5188
484 1 4.8 49.6 1.6 -11.6584
486 1 8 49.6 1.6 -11.5733
488 2 11.2 49.6 1.6 -9.57467
490 1 14.4 49.6 1.6 -11.4364
492 1 17.6 49.6 1.6 -11.5313
494 1 20.8 49.6 1.6 -11.6314
496 1 24 49.6 1.6 -11.6547
498 1 27.2 49.6 1.6 -11.7806
500 1 30.4 49.6 1.6 -11.8124
502 1 33.6 49.6 1.6 -11.7844
504 1 36.8 49.6 1.6 -11.7808
506 1 40 49.6 1.6 -11.5988
508 3 43.2 49.6 1.6 -11.1263
510 3 46.4 49.6 1.6 -11.0835
512 2 49.6 49.6 1.6 -9.63834
513 2 0 0 3.2 -9.70055
514 1 1.6 1.6 4.8 -11.6712
515 3 3.2 0 3.2 -11.0792
516 1 4.8 1.6 4.8 -11.6833
517 3 6.4 0 3.2 -11.1614
518 1 8 1.6 4.8 -11.6911
519 2 9.6 0 3.2 -9.53072
520 1 11.2 1.6 4.8 -11.6612
521 2 12.8 0 3.2 -9.59449
522 1 14.4 1.6 4.8 -11.6893
523 2 16 0 3.2 -9.54513
524 1 17.6 1.6 4.8 -11.7811
525 3 19.2 0 3.2 -11.1263
526 1 20.8 1.6 4.8 -11.8124
527 3 22.4 0 3.2 -11.126
528 1 24 1.6 4.8 -11.7846
529 3 25.6 0 3.2 -11.2054
530 1 27.2 1.6 4.8 -11.7223
531 3 28.8 0 3.2 -11.1651
532 1 30.4 1.6 4.8 -11.6897
533 3 32 0 3.2 -11.1238
534 1 33.6 1.6 4.8 -11.7208
535 2 35.2 0 3.2 -9.67712
536 1 36.8 1.6 4.8 -11.7183
537 2 38.4 0 3.2 -9.66632
538 1 40 1.6 4.8 -11.5395
539 1 41.6 0 3.2 -11.5154
540 2 43.2 1.6 4.8 -9.56535
541 1 44.8 0 3.2 -11.7503
542 2 46.4 1.6 4.8 -9.72787
543 1 48 0 3.2 -11.7211
544 2 49.6 1.6 4.8 -9.75704
545 1 0 3.2 3.2 -11.7325
546 3 1.6 4.8 4.8 -11.0754
547 1 3.2 3.2 3.2 -11.6103
548 1 4.8 4.8 4.8 -11.3976
549 2 6.4 3.2 3.2 -9.60422
550 1 8 4.8 4.8 -11.5038
551 2 9.6 3.2 3.2 -9.56505
552 1 11.2 4.8 4.8 -11.5815
553 3 12.8 3.2 3.2 -11.0406
554 1 14.4 4.8 4.8 -11.7223
555 3 16 3.2 3.2 -11.2054
556 1 17.6 4.8 4.8 -11.8124
557 3 19.2 3.2 3.2 -11.2042
558 1 20.8 4.8 4.8 -11.8124
559 2 22.4 3.2 3.2 -9.70694
560 1 24 4.8 4.8 -11.7583
561 3 25.6 3.2 3.2 -11.0818
562 1 27.2 4.8 4.8 -11.6919
563 2 28.8 3.2 3.2 -9.67735
564 1 30.4 4.8 4.8 -11.6919
565 3 32 3.2 3.2 -11.1241
566 1 33.6 4.8 4.8 -11.7532
567 3 35.2 3.2 3.2 -11.1667
568 1 36.8 4.8 4.8 -11.7511
569 3 38.4 3.2 3.2 -11.04
570 1 40 4.8 4.8 -11.6339
571 1 41.6 3.2 3.2 -11.5068
572 2 43.2 4.8 4.8 -9.73204
573 1 44.8 3.2 3.2 -11.7262
574 3 46.4 4.8 4.8 -11.0665
575 1 48 3.2 3.2 -11.7594
576 2 49.6 4.8 4.8 -9.78193
577 1 0 6.4 3.2 -11.7503
578 3 1.6 8 4.8 -11.084
579 1 3.2 6.4 3.2 -11.6744
580 2 4.8 8 4.8 -9.61453
581 1 6.4 6.4 3.2 -11.5538
582 2 8 8 4.8 -9.5309
583 1 9.6 6.4 3.2 -11.4914
584 1 11.2 8 4.8 -11.3848
585 2 12.8 6.4 3.2 -9.62917
586 1 14.4 8 4.8 -11.5823
587 3 16 6.4 3.2 -11.1648
588 1 17.6 8 4.8 -11.7811
589 3 19.2 6.4 3.2 -11.242
590 1 20.8 8 4.8 -11.8417
591 3 22.4 6.4 3.2 -11.1645
592 1 24 8 4.8 -11.8124
593 2 25.6 6.4 3.2 -9.67735
594 1 27.2 8 4.8 -11.7201
595 2 28.8 6.4 3.2 -9.58259
596 1 30.4 8 4.8 -11.6969
597 2 32 6.4 3.2 -9.6154
598 1 33.6 8 4.8 -11.7249
599 2 35.2 6.4 3.2 -9.61492
600 1 36.8 8 4.8 -11.6578
601 2 38.4 6.4 3.2 -9.58271
602 1 40 8 4.8 -11.6275
603 2 41.6 6.4 3.2 -9.6327
604 1 43.2 8 4.8 -11.7295
605 2 44.8 6.4 3.2 -9.69062
606 1 46.4 8 4.8 -11.6613
607 1 48 6.4 3.2 -11.6342
608 2 49.6 8 4.8 -9.69623
609 1 0 9.6 3.2 -11.7138
610 2 1.6 11.2 4.8 -9.56493
611 1 3.2 9.6 3.2 -11.7532
612 3 4.8 11.2 4.8 -10.9497
613 1 6.4 9.6 3.2 -11.7511
614 2 8 11.2 4.8 -9.56459
615 1 9.6 9.6 3.2 -11.5521
616 1 11.2 11.2 4.8 -11.438
617 2 12.8 9.6 3.2 -9.61958
618 1 14.4 11.2 4.8 -11.5817
619 3 16 9.6 3.2 -11.166
620 1 17.6 11.2 4.8 -11.7511
621 3 19.2 9.6 3.2 -11.2423
622 1 20.8 11.2 4.8 -11.7806
623 3 22.4 9.6 3.2 -11.2048
624 1 24 11.2 4.8 -11.7875
625 3 25.6 9.6 3.2 -11.1634
626 1 27.2 11.2 4.8 -11.6438
627 2 28.8 9.6 3.2 -9.70142
628 2 30.4 11.2 4.8 -9.75858
629 2 32 9.6 3.2 -9.72027
630 2 33.6 11.2 4.8 -9.75628
631 2 35.2 9.6 3.2 -9.66636
632 1 36.8 11.2 4.8 -11.6382
633 2 38.4 9.6 3.2 -9.58296
634 1 40 11.2 4.8 -11.6578
635 2 41.6 9.6 3.2 -9.64817
636 1 43.2 11.2 4.8 -11.7811
637 3 44.8 9.6 3.2 -11.1671
638 1 46.4 11.2 4.8 -11.7878
639 3 48 9.6 3.2 -11.1774
640 2 49.6 11.2 4.8 -9.72544
641 1 0 12.8 3.2 -11.521
642 1 1.6 14.4 4.8 -11.4718
643 1 3.2 12.8 3.2 -11.5571
644 1 4.8 14.4 4.8 -11.4734
645 1 6.4 12.8 3.2 -11.5879
646 1 8 14.4 4.8 -11.4496
647 1 9.6 12.8 3.2 -11.5531
648 1 11.2 14.4 4.8 -11.5972
649 2 12.8 12.8 3.2 -9.6962
650 1 14.4 14.4 4.8 -11.7201
651 3 16 12.8 3.2 -11.1257
652 1 17.6 14.4 4.8 -11.6889
653 3 19.2 12.8 3.2 -11.166
654 1 20.8 14.4 4.8 -11.5978
655 3 22.4 12.8 3.2 -11.0821
656 2 24 14.4 4.8 -9.65715
657 2 25.6 12.8 3.2 -9.7091
658 2 27.2 14.4 4.8 -9.66918
659 1 28.8 12.8 3.2 -11.7005
660 3 30.4 14.4 4.8 -11.1255
661 1 32 12.8 3.2 -11.7561
662 3 33.6 14.4 4.8 -11.1639
663 1 35.2 12.8 3.2 -11.6129
664 2 36.8 14.4 4.8 -9.73482
665 2 38.4 12.8 3.2 -9.63253
666 1 40 14.4 4.8 -11.6975
667 2 41.6 12.8 3.2 -9.64805
668 1 43.2 14.4 4.8 -11.7809
669 3 44.8 12.8 3.2 -11.1664
670 1 46.4 14.4 4.8 -11.7508
671 2 48 12.8 3.2 -9.69267
672 1 49.6 14.4 4.8 -11.6012
673 2 0 16 3.2 -9.56152
674 1 1.6 17.6 4.8 -11.6275
675 2 3.2 16 3.2 -9.56992
676 1 4.8 17.6 4.8 -11.6569
677 2 6.4 16 3.2 -9.56991
678 1 8 17.6 4.8 -11.5229
679 2 9.6 16 3.2 -9.59338
680 1 11.2 17.6 4.8 -11.5826
681 3 12.8 16 3.2 -11.2407
682 1 14.4 17.6 4.8 -11.7504
683 3 16 16 3.2 -11.1654
684 1 17.6 17.6 4.8 -11.698
685 2 19.2 16 3.2 -9.57931
686 1 20.8 17.6 4.8 -11.3862
687 1 22.4 16 3.2 -11.3987
688 2 24 17.6 4.8 -9.51476
689 1 25.6 16 3.2 -11.5975
690 2 27.2 17.6 4.8 -9.64829
691 1 28.8 16 3.2 -11.7508
692 3 30.4 17.6 4.8 -11.166
693 1 32 16 3.2 -11.7811
694 3 33.6 17.6 4.8 -11.1265
695 1 35.2 16 3.2 -11.6967
696 2 36.8 17.6 4.8 -9.59805
697 2 38.4 16 3.2 -9.69494
698 1 40 17.6 4.8 -11.4236
699 2 41.6 16 3.2 -9.55032
700 1 43.2 17.6 4.8 -11.6235
701 3 44.8 16 3.2 -11.126
702 1 46.4 17.6 4.8 -11.6885
703 2 48 16 3.2 -9.64875
704 1 49.6 17.6 4.8 -11.6279
705 2 0 19.2 3.2 -9.58331
706 1 1.6 20.8 4.8 -11.7205
707 2 3.2 19.2 3.2 -9.50908
708 1 4.8 20.8 4.8 -11.7508
709 2 6.4 19.2 3.2 -9.61586
710 1 8 20.8 4.8 -11.6468
711 2 9.6 19.2 3.2 -9.57931
712 1 11.2 20.8 4.8 -11.6596
713 3 12.8 19.2 3.2 -11.1243
714 1 14.4 20.8 4.8 -11.7226
715 3 16 19.2 3.2 -11.1241
716 1 17.6 20.8 4.8 -11.5926
717 2 19.2 19.2 3.2 -9.5455
718 1 20.8 20.8 4.8 -11.498
719 1 22.4 19.2 3.2 -11.4591
720 2 24 20.8 4.8 -9.70354
721 1 25.6 19.2 3.2 -11.6567
722 2 27.2 20.8 4.8 -9.63366
723 1 28.8 19.2 3.2 -11.7811
724 3 30.4 20.8 4.8 -11.0378
725 1 32 19.2 3.2 -11.8124
726 3 33.6 20.8 4.8 -11.166
727 1 35.2 19.2 3.2 -11.7205
728 2 36.8 20.8 4.8 -9.64613
729 1 38.4 19.2 3.2 -11.5578
730 2 40 20.8 4.8 -9.553
731 1 41.6 19.2 3.2 -11.424
732 2 43.2 20.8 4.8 -9.606
733 2 44.8 19.2 3.2 -9.6396
734 1 46.4 20.8 4.8 -11.5347
735 2 48 19.2 3.2 -9.54835
736 1 49.6 20.8 4.8 -11.6578
737 3 0 22.4 3.2 -11.0362
738 1 1.6 24 4.8 -11.7572
739 2 3.2 22.4 3.2 -9.72849
740 1 4.8 24 4.8 -11.7881
741 3 6.4 22.4 3.2 -11.1632
742 1 8 24 4.8 -11.7528
743 3 9.6 22.4 3.2 -11.04
744 1 11.2 24 4.8 -11.733
745 2 12.8 22.4 3.2 -9.67769
746 1 14.4 24 4.8 -11.7525
747 2 16 22.4 3.2 -9.68046
748 1 17.6 24 4.8 -11.549
749 2 19.2 22.4 3.2 -9.43854
750 1 20.8 24 4.8 -11.3483
751 3 22.4 22.4 3.2 -10.978
752 1 24 24 4.8 -11.3857
753 1 25.6 22.4 3.2 -11.5887
754 1 27.2 24 4.8 -11.2535
755 1 28.8 22.4 3.2 -11.6416
756 2 30.4 24 4.8 -9.5441
757 1 32 22.4 3.2 -11.8124
758 3 33.6 24 4.8 -11.2048
759 1 35.2 22.4 3.2 -11.8124
760 3 36.8 24 4.8 -11.1648
761 1 38.4 22.4 3.2 -11.7511
762 2 40 24 4.8 -9.61479
763 1 41.6 22.4 3.2 -11.6578
764 2 43.2 24 4.8 -9.51451
765 1 44.8 22.4 3.2 -11.3872
766 1 46.4 24 4.8 -11.3116
767 2 48 22.4 3.2 -9.51019
768 1 49.6 24 4.8 -11.5812
769 2 0 25.6 3.2 -9.65725
771 2 3.2 25.6 3.2 -9.66444
773 2 6.4 25.6 3.2 -9.62569
775 2 9.6 25.6 3.2 -9.57968
777 3 12.8 25.6 3.2 -10.9499
779 3 16 25.6 3.2 -10.9887
781 1 19.2 25.6 3.2 -11.4126
783 1 22.4 25.6 3.2 -11.4821
785 1 25.6 25.6 3.2 -11.4958
787 1 28.8 25.6 3.2 -11.6421
789 1 32 25.6 3.2 -11.8124
791 1 35.2 25.6 3.2 -11.8417
793 1 38.4 25.6 3.2 -11.7511
795 1 41.6 25.6 3.2 -11.6279
797 1 44.8 25.6 3.2 -11.42
799 2 48 25.6 3.2 -9.48356
770 1 1.6 27.2 4.8 -11.627
801 2 0 28.8 3.2 -9.54908
772 1 4.8 27.2 4.8 -11.6578
803 2 3.2 28.8 3.2 -9.47625
774 1 8 27.2 4.8 -11.6893
805 2 6.4 28.8 3.2 -9.5492
776 1 11.2 27.2 4.8 -11.7242
807 2 9.6 28.8 3.2 -9.58388
778 1 14.4 27.2 4.8 -11.7281
809 2 12.8 28.8 3.2 -9.60369
780 2 17.6 27.2 4.8 -9.63042
811 1 16 28.8 3.2 -11.5717
782 2 20.8 27.2 4.8 -9.50971
813 1 19.2 28.8 3.2 -11.5853
784 2 24 27.2 4.8 -9.51463
815 1 22.4 28.8 3.2 -11.6919
817 1 25.6 28.8 3.2 -11.5867
786 2 27.2 27.2 4.8 -9.55069
819 1 28.8 28.8 3.2 -11.6564
788 3 30.4 27.2 4.8 -11.0832
821 1 32 28.8 3.2 -11.7811
790 3 33.6 27.2 4.8 -11.2042
823 1 35.2 28.8 3.2 -11.7846
792 3 36.8 27.2 4.8 -11.2048
825 1 38.4 28.8 3.2 -11.6113
794 2 40 27.2 4.8 -9.6154
827 1 41.6 28.8 3.2 -11.506
796 2 43.2 27.2 4.8 -9.43827
829 1 44.8 28.8 3.2 -11.4014
798 1 46.4 27.2 4.8 -11.3673
831 2 48 28.8 3.2 -9.59942
800 1 49.6 27.2 4.8 -11.5664
802 1 1.6 30.4 4.8 -11.4473
833 2 0 32 3.2 -9.44401
804 1 4.8 30.4 4.8 -11.5657
835 1 3.2 32 3.2 -11.474
806 1 8 30.4 4.8 -11.6449
837 2 6.4 32 3.2 -9.62718
808 1 11.2 30.4 4.8 -11.6087
839 2 9.6 32 3.2 -9.56146
810 2 14.4 30.4 4.8 -9.7527
841 1 12.8 32 3.2 -11.6196
812 1 17.6 30.4 4.8 -11.421
843 1 16 32 3.2 -11.6303
814 3 20.8 30.4 4.8 -10.9972
845 1 19.2 32 3.2 -11.6473
816 2 24 30.4 4.8 -9.61528
847 1 22.4 32 3.2 -11.7532
849 1 25.6 32 3.2 -11.6119
818 2 27.2 30.4 4.8 -9.51346
851 1 28.8 32 3.2 -11.618
820 2 30.4 30.4 4.8 -9.64829
853 1 32 32 3.2 -11.7511
822 2 33.6 30.4 4.8 -9.70694
855 1 35.2 32 3.2 -11.7245
824 3 36.8 30.4 4.8 -11.0826
857 1 38.4 32 3.2 -11.5242
826 2 40 30.4 4.8 -9.52487
859 2 41.6 32 3.2 -9.58093
828 1 43.2 30.4 4.8 -11.3721
861 2 44.8 32 3.2 -9.58835
830 1 46.4 30.4 4.8 -11.3663
863 3 48 32 3.2 -10.9484
832 1 49.6 30.4 4.8 -11.528
834 1 1.6 33.6 4.8 -11.3513
865 1 0 35.2 3.2 -11.5143
836 2 4.8 33.6 4.8 -9.66705
867 1 3.2 35.2 3.2 -11.58
838 2 8 33.6 4.8 -9.70073
869 1 6.4 35.2 3.2 -11.6975
840 2 11.2 33.6 4.8 -9.60734
871 1 9.6 35.2 3.2 -11.698
842 2 14.4 33.6 4.8 -9.72404
873 1 12.8 35.2 3.2 -11.7179
844 2 17.6 33.6 4.8 -9.59777
875 1 16 35.2 3.2 -11.7205
846 2 20.8 33.6 4.8 -9.67758
877 1 19.2 35.2 3.2 -11.7187
848 3 24 33.6 4.8 -11.0829
879 1 22.4 35.2 3.2 -11.7511
881 1 25.6 35.2 3.2 -11.7208
850 3 27.2 33.6 4.8 -11.0403
883 1 28.8 35.2 3.2 -11.6616
852 2 30.4 33.6 4.8 -9.64852
885 1 32 35.2 3.2 -11.6667
854 3 33.6 33.6 4.8 -10.9958
887 1 35.2 35.2 3.2 -11.57
856 2 36.8 33.6 4.8 -9.64712
889 1 38.4 35.2 3.2 -11.4609
858 2 40 33.6 4.8 -9.60475
891 2 41.6 35.2 3.2 -9.6296
860 1 43.2 33.6 4.8 -11.5115
893 3 44.8 35.2 3.2 -11.0414
862 1 46.4 33.6 4.8 -11.486
895 2 48 35.2 3.2 -9.56816
864 1 49.6 33.6 4.8 -11.3838
866 2 1.6 36.8 4.8 -9.54512
897 1 0 38.4 3.2 -11.6573
868 3 4.8 36.8 4.8 -11.0403
899 1 3.2 38.4 3.2 -11.7532
870 2 8 36.8 4.8 -9.64817
901 1 6.4 38.4 3.2 -11.7532
872 3 11.2 36.8 4.8 -11.1663
903 1 9.6 38.4 3.2 -11.7811
874 3 14.4 36.8 4.8 -11.1241
905 1 12.8 38.4 3.2 -11.8417
876 2 17.6 36.8 4.8 -9.61504
907 1 16 38.4 3.2 -11.7511
878 2 20.8 36.8 4.8 -9.61736
909 1 19.2 38.4 3.2 -11.6582
880 2 24 36.8 4.8 -9.61528
911 1 22.4 38.4 3.2 -11.6573
913 1 25.6 38.4 3.2 -11.5984
882 2 27.2 36.8 4.8 -9.61575
915 1 28.8 38.4 3.2 -11.4736
884 2 30.4 36.8 4.8 -9.52963
917 2 32 38.4 3.2 -9.5184
886 1 33.6 36.8 4.8 -11.5256
919 2 35.2 38.4 3.2 -9.64298
888 2 36.8 36.8 4.8 -9.48871
921 2 38.4 38.4 3.2 -9.66255
890 1 40 36.8 4.8 -11.5791
923 3 41.6 38.4 3.2 -11.0397
892 1 43.2 36.8 4.8 -11.6607
925 2 44.8 38.4 3.2 -9.66207
894 1 46.4 36.8 4.8 -11.5539
927 1 48 38.4 3.2 -11.4714
896 2 49.6 36.8 4.8 -9.53088
898 3 1.6 40 4.8 -11.0403
929 1 0 41.6 3.2 -11.7253
900 2 4.8 40 4.8 -9.61379
931 1 3.2 41.6 3.2 -11.6749
902 3 8 40 4.8 -11.1657
933 1 6.4 41.6 3.2 -11.7093
904 3 11.2 40 4.8 -11.242
935 1 9.6 41.6 3.2 -11.8124
906 3 14.4 40 4.8 -11.2048
937 1 12.8 41.6 3.2 -11.8124
908 2 17.6 40 4.8 -9.58208
939 1 16 41.6 3.2 -11.7511
910 2 20.8 40 4.8 -9.65691
941 1 19.2 41.6 3.2 -11.6573
912 2 24 40 4.8 -9.57228
943 1 22.4 41.6 3.2 -11.6189
945 2 25.6 41.6 3.2 -9.60776
914 2 27.2 40 4.8 -9.49197
947 2 28.8 41.6 3.2 -9.53116
916 1 30.4 40 4.8 -11.3837
949 1 32 41.6 3.2 -11.3932
918 1 33.6 40 4.8 -11.3993
951 2 35.2 41.6 3.2 -9.55949
920 1 36.8 40 4.8 -11.6657
953 3 38.4 41.6 3.2 -11.1265
922 1 40 40 4.8 -11.7504
955 3 41.6 41.6 3.2 -11.2065
924 1 43.2 40 4.8 -11.7583
957 3 44.8 41.6 3.2 -11.0763
926 2 46.4 40 4.8 -9.65416
959 1 48 41.6 3.2 -11.5152
928 2 49.6 40 4.8 -9.58355
930 2 1.6 43.2 4.8 -9.62739
961 2 0 44.8 3.2 -9.77006
932 1 4.8 43.2 4.8 -11.3733
963 1 3.2 44.8 3.2 -11.513
934 3 8 43.2 4.8 -11.0412
965 1 6.4 44.8 3.2 -11.6068
936 3 11.2 43.2 4.8 -11.1648
967 1 9.6 44.8 3.2 -11.6801
938 3 14.4 43.2 4.8 -11.2048
969 1 12.8 44.8 3.2 -11.758
940 2 17.6 43.2 4.8 -9.64817
971 1 16 44.8 3.2 -11.7525
942 2 20.8 43.2 4.8 -9.7328
973 1 19.2 44.8 3.2 -11.759
944 1 24 43.2 4.8 -11.5763
975 2 22.4 44.8 3.2 -9.75388
977 3 25.6 44.8 3.2 -11.0843
946 1 27.2 43.2 4.8 -11.5938
979 3 28.8 44.8 3.2 -11.2038
948 2 30.4 43.2 4.8 -9.6554
981 2 32 44.8 3.2 -9.76047
950 2 33.6 43.2 4.8 -9.63153
983 2 35.2 44.8 3.2 -9.6658
952 1 36.8 43.2 4.8 -11.4803
985 2 38.4 44.8 3.2 -9.61429
954 1 40 43.2 4.8 -11.6749
987 3 41.6 44.8 3.2 -11.0346
956 1 43.2 43.2 4.8 -11.6696
989 1 44.8 44.8 3.2 -11.5217
958 2 46.4 43.2 4.8 -9.61974
991 1 48 44.8 3.2 -11.5916
960 2 49.6 43.2 4.8 -9.69461
962 1 1.6 46.4 4.8 -11.4989
993 2 0 48 3.2 -9.63822
964 1 4.8 46.4 4.8 -11.4364
995 2 3.2 48 3.2 -9.60489
966 1 8 46.4 4.8 -11.4623
997 2 6.4 48 3.2 -9.67157
968 2 11.2 46.4 4.8 -9.62199
999 1 9.6 48 3.2 -11.4671
970 3 14.4 46.4 4.8 -11.1509
1001 1 12.8 48 3.2 -11.5344
972 2 17.6 46.4 4.8 -9.70658
1003 1 16 48 3.2 -11.5039
974 2 20.8 46.4 4.8 -9.76081
1005 2 19.2 48 3.2 -9.63234
976 1 24 46.4 4.8 -11.7009
1007 2 22.4 48 3.2 -9.663
1009 2 25.6 48 3.2 -9.67747
978 1 27.2 46.4 4.8 -11.7242
1011 3 28.8 48 3.2 -11.1251
980 1 30.4 46.4 4.8 -11.7312
1013 2 32 48 3.2 -9.74946
982 2 33.6 46.4 4.8 -9.71153
1015 3 35.2 48 3.2 -11.1622
984 1 36.8 46.4 4.8 -11.5739
1017 3 38.4 48 3.2 -11.1237
986 1 40 46.4 4.8 -11.5646
1019 1 41.6 48 3.2 -11.6313
988 2 43.2 46.4 4.8 -9.65211
1021 1 44.8 48 3.2 -11.7243
990 2 46.4 46.4 4.8 -9.70147
1023 1 48 48 3.2 -11.642
992 2 49.6 46.4 4.8 -9.70451
994 1 1.6 49.6 4.8 -11.58
996 1 4.8 49.6 4.8 -11.7505
998 1 8 49.6 4.8 -11.529
1000 1 11.2 49.6 4.8 -11.5158
1002 1 14.4 49.6 4.8 -11.5471
1004 1 17.6 49.6 4.8 -11.5693
1006 1 20.8 49.6 4.8 -11.6935
1008 1 24 49.6 4.8 -11.7508
1010 1 27.2 49.6 4.8 -11.7532
1012 1 30.4 49.6 4.8 -11.6893
1014 1 33.6 49.6 4.8 -11.6972
1016 1 36.8 49.6 4.8 -11.7205
1018 2 40 49.6 4.8 -9.59316
1020 3 43.2 49.6 4.8 -11.0386
1022 2 46.4 49.6 4.8 -9.73471
1024 1 49.6 49.6 4.8 -11.5865
1025 2 0 0 6.4 -9.66074
1026 1 1.6 1.6 8 -11.7291
1027 3 3.2 0 6.4 -11.1271
1028 1 4.8 1.6 8 -11.6893
1029 3 6.4 0 6.4 -11.1252
1030 1 8 1.6 8 -11.6915
1031 2 9.6 0 6.4 -9.62873
1032 1 11.2 1.6 8 -11.7301
1033 2 12.8 0 6.4 -9.69084
1034 1 14.4 1.6 8 -11.7297
1035 2 16 0 6.4 -9.69221
1036 1 17.6 1.6 8 -11.7508
1037 3 19.2 0 6.4 -11.0373
1038 1 20.8 1.6 8 -11.8124
1039 3 22.4 0 6.4 -11.2057
1040 1 24 1.6 8 -11.8124
1041 3 25.6 0 6.4 -11.1648
1042 1 27.2 1.6 8 -11.7223
1043 2 28.8 0 6.4 -9.64805
1044 1 30.4 1.6 8 -11.6582
1045 2 32 0 6.4 -9.61749
1046 1 33.6 1.6 8 -11.7208
1047 2 35.2 0 6.4 -9.61479
1048 1 36.8 1.6 8 -11.7511
1049 2 38.4 0 6.4 -9.63244
1050 1 40 1.6 8 -11.6108
1051 1 41.6 0 6.4 -11.4074
1052 1 43.2 1.6 8 -11.4858
1053 1 44.8 0 6.4 -11.4904
1054 1 46.4 1.6 8 -11.6162
1055 3 48 0 6.4 -11.1114
1056 1 49.6 1.6 8 -11.793
1057 2 0 3.2 6.4 -9.78318
1058 2 1.6 4.8 8 -9.78474
1059 2 3.2 3.2 6.4 -9.63319
1060 1 4.8 4.8 8 -11.5589
1061 2 6.4 3.2 6.4 -9.54563
1062 1 8 4.8 8 -11.63
1063 3 9.6 3.2 6.4 -11.0408
1064 1 11.2 4.8 8 -11.7205
1065 2 12.8 3.2 6.4 -9.67992
1066 1 14.4 4.8 8 -11.7208
1067 3 16 3.2 6.4 -11.1251
1068 1 17.6 4.8 8 -11.7811
1069 3 19.2 3.2 6.4 -11.2426
1070 1 20.8 4.8 8 -11.8417
1071 3 22.4 3.2 6.4 -11.1636
1072 1 24 4.8 8 -11.8124
1073 2 25.6 3.2 6.4 -9.70717
1074 1 27.2 4.8 8 -11.7511
1075 2 28.8 3.2 6.4 -9.58195
1076 1 30.4 4.8 8 -11.7187
1077 2 32 3.2 6.4 -9.64566
1078 1 33.6 4.8 8 -11.7811
1079 3 35.2 3.2 6.4 -11.1654
1080 1 36.8 4.8 8 -11.7811
1081 3 38.4 3.2 6.4 -11.1271
1082 1 40 4.8 8 -11.7205
1083 2 41.6 3.2 6.4 -9.56717
1084 1 43.2 4.8 8 -11.6937
1085 1 44.8 3.2 6.4 -11.5451
1086 1 46.4 4.8 8 -11.6623
1087 2 48 3.2 6.4 -9.78313
1088 2 49.6 4.8 8 -9.77498
1089 1 0 6.4 6.4 -11.7294
1090 2 1.6 8 8 -9.69857
1091 1 3.2 6.4 6.4 -11.6285
1092 3 4.8 8 8 -11.1333
1093 1 6.4 6.4 6.4 -11.4693
1094 2 8 8 8 -9.67436
1095 2 9.6 6.4 6.4 -9.53112
1096 1 11.2 8 8 -11.5401
1097 2 12.8 6.4 6.4 -9.51387
1098 1 14.4 8 8 -11.615
1099 2 16 6.4 6.4 -9.64566
1100 1 17.6 8 8 -11.7245
1101 3 19.2 6.4 6.4 -11.2042
1102 1 20.8 8 8 -11.8124
1103 3 22.4 6.4 6.4 -11.2423