 # Bcc Mo oriented X=[100] Y=[010] Z=[001].
  
        8192  atoms
           4  atom types
 
      0.000000000000      51.200000000000  xlo xhi
      0.000000000000      51.200000000000  ylo yhi
      0.000000000000      51.200000000000  zlo zhi
 
 
 
Atoms # atomic

1 1 0.0 0.0 0.0
2 3 1.6 1.6 1.6
3 3 3.2 0.0 0.0
4 1 4.8 1.6 1.6
5 2 6.4 0.0 0.0
6 3 8.0 1.6 1.6
7 1 9.6 0.0 0.0
8 3 11.2 1.6 1.6
9 1 12.8 0.0 0.0
10 3 14.4 1.6 1.6
11 2 16.0 0.0 0.0
12 3 17.6 1.6 1.6
13 2 19.2 0.0 0.0
14 2 20.8 1.6 1.6
15 3 22.4 0.0 0.0
16 3 24.0 1.6 1.6
17 2 25.6 0.0 0.0
18 3 27.2 1.6 1.6
19 3 28.8 0.0 0.0
20 1 30.4 1.6 1.6
21 3 32.0 0.0 0.0
22 2 33.6 1.6 1.6
23 3 35.2 0.0 0.0
24 3 36.8 1.6 1.6
25 3 38.4 0.0 0.0
26 3 40.0 1.6 1.6
27 1 41.6 0.0 0.0
28 3 43.2 1.6 1.6
29 3 44.8 0.0 0.0
30 3 46.4 1.6 1.6
31 3 48.0 0.0 0.0
32 3 49.6 1.6 1.6
33 1 0.0 3.2 0.0
34 3 1.6 4.8 1.6
35 1 3.2 3.2 0.0
36 3 4.8 4.8 1.6
37 1 6.4 3.2 0.0
38 1 8.0 4.8 1.6
39 3 9.6 3.2 0.0
40 1 11.2 4.8 1.6
41 1 12.8 3.2 0.0
42 1 14.4 4.8 1.6
43 3 16.0 3.2 0.0
44 1 17.6 4.8 1.6
45 3 19.2 3.2 0.0
46 3 20.8 4.8 1.6
47 3 22.4 3.2 0.0
48 2 24.0 4.8 1.6
49 1 25.6 3.2 0.0
50 1 27.2 4.8 1.6
51 1 28.8 3.2 0.0
52 3 30.4 4.8 1.6
53 1 32.0 3.2 0.0
54 3 33.6 4.8 1.6
55 3 35.2 3.2 0.0
56 2 36.8 4.8 1.6
57 3 38.4 3.2 0.0
58 1 40.0 4.8 1.6
59 1 41.6 3.2 0.0
60 2 43.2 4.8 1.6
61 1 44.8 3.2 0.0
62 1 46.4 4.8 1.6
63 1 48.0 3.2 0.0
64 3 49.6 4.8 1.6
65 3 0.0 6.4 0.0
66 3 1.6 8.0 1.6
67 3 3.2 6.4 0.0
68 3 4.8 8.0 1.6
69 1 6.4 6.4 0.0
70 3 8.0 8.0 1.6
71 3 9.6 6.4 0.0
72 3 11.2 8.0 1.6
73 1 12.8 6.4 0.0
74 1 14.4 8.0 1.6
75 3 16.0 6.4 0.0
76 2 17.6 8.0 1.6
77 3 19.2 6.4 0.0
78 1 20.8 8.0 1.6
79 3 22.4 6.4 0.0
80 3 24.0 8.0 1.6
81 1 25.6 6.4 0.0
82 3 27.2 8.0 1.6
83 1 28.8 6.4 0.0
84 1 30.4 8.0 1.6
85 3 32.0 6.4 0.0
86 1 33.6 8.0 1.6
87 2 35.2 6.4 0.0
88 1 36.8 8.0 1.6
89 1 38.4 6.4 0.0
90 3 40.0 8.0 1.6
91 3 41.6 6.4 0.0
92 1 43.2 8.0 1.6
93 1 44.8 6.4 0.0
94 1 46.4 8.0 1.6
95 3 48.0 6.4 0.0
96 3 49.6 8.0 1.6
97 3 0.0 9.6 0.0
98 3 1.6 11.2 1.6
99 3 3.2 9.6 0.0
100 3 4.8 11.2 1.6
101 3 6.4 9.6 0.0
102 1 8.0 11.2 1.6
103 3 9.6 9.6 0.0
104 1 11.2 11.2 1.6
105 1 12.8 9.6 0.0
106 1 14.4 11.2 1.6
107 3 16.0 9.6 0.0
108 3 17.6 11.2 1.6
109 3 19.2 9.6 0.0
110 3 20.8 11.2 1.6
111 3 22.4 9.6 0.0
112 3 24.0 11.2 1.6
113 1 25.6 9.6 0.0
114 3 27.2 11.2 1.6
115 2 28.8 9.6 0.0
116 3 30.4 11.2 1.6
117 1 32.0 9.6 0.0
118 3 33.6 11.2 1.6
119 1 35.2 9.6 0.0
120 1 36.8 11.2 1.6
121 2 38.4 9.6 0.0
122 3 40.0 11.2 1.6
123 3 41.6 9.6 0.0
124 3 43.2 11.2 1.6
125 3 44.8 9.6 0.0
126 3 46.4 11.2 1.6
127 3 48.0 9.6 0.0
128 3 49.6 11.2 1.6
129 1 0.0 12.8 0.0
130 1 1.6 14.4 1.6
131 3 3.2 12.8 0.0
132 1 4.8 14.4 1.6
133 3 6.4 12.8 0.0
134 3 8.0 14.4 1.6
135 1 9.6 12.8 0.0
136 1 11.2 14.4 1.6
137 3 12.8 12.8 0.0
138 3 14.4 14.4 1.6
139 3 16.0 12.8 0.0
140 3 17.6 14.4 1.6
141 1 19.2 12.8 0.0
142 3 20.8 14.4 1.6
143 3 22.4 12.8 0.0
144 1 24.0 14.4 1.6
145 3 25.6 12.8 0.0
146 3 27.2 14.4 1.6
147 3 28.8 12.8 0.0
148 1 30.4 14.4 1.6
149 3 32.0 12.8 0.0
150 1 33.6 14.4 1.6
151 3 35.2 12.8 0.0
152 1 36.8 14.4 1.6
153 1 38.4 12.8 0.0
154 3 40.0 14.4 1.6
155 1 41.6 12.8 0.0
156 3 43.2 14.4 1.6
157 3 44.8 12.8 0.0
158 1 46.4 14.4 1.6
159 3 48.0 12.8 0.0
160 3 49.6 14.4 1.6
161 3 0.0 16.0 0.0
162 1 1.6 17.6 1.6
163 3 3.2 16.0 0.0
164 3 4.8 17.6 1.6
165 1 6.4 16.0 0.0
166 3 8.0 17.6 1.6
167 1 9.6 16.0 0.0
168 3 11.2 17.6 1.6
169 3 12.8 16.0 0.0
170 1 14.4 17.6 1.6
171 3 16.0 16.0 0.0
172 3 17.6 17.6 1.6
173 2 19.2 16.0 0.0
174 3 20.8 17.6 1.6
175 1 22.4 16.0 0.0
176 2 24.0 17.6 1.6
177 1 25.6 16.0 0.0
178 1 27.2 17.6 1.6
179 1 28.8 16.0 0.0
180 1 30.4 17.6 1.6
181 2 32.0 16.0 0.0
182 3 33.6 17.6 1.6
183 3 35.2 16.0 0.0
184 3 36.8 17.6 1.6
185 2 38.4 16.0 0.0
186 1 40.0 17.6 1.6
187 1 41.6 16.0 0.0
188 1 43.2 17.6 1.6
189 3 44.8 16.0 0.0
190 3 46.4 17.6 1.6
191 1 48.0 16.0 0.0
192 3 49.6 17.6 1.6
193 3 0.0 19.2 0.0
194 3 1.6 20.8 1.6
195 3 3.2 19.2 0.0
196 3 4.8 20.8 1.6
197 3 6.4 19.2 0.0
198 1 8.0 20.8 1.6
199 3 9.6 19.2 0.0
200 3 11.2 20.8 1.6
201 1 12.8 19.2 0.0
202 3 14.4 20.8 1.6
203 1 16.0 19.2 0.0
204 1 17.6 20.8 1.6
205 2 19.2 19.2 0.0
206 1 20.8 20.8 1.6
207 3 22.4 19.2 0.0
208 3 24.0 20.8 1.6
209 1 25.6 19.2 0.0
210 3 27.2 20.8 1.6
211 1 28.8 19.2 0.0
212 1 30.4 20.8 1.6
213 3 32.0 19.2 0.0
214 1 33.6 20.8 1.6
215 3 35.2 19.2 0.0
216 3 36.8 20.8 1.6
217 3 38.4 19.2 0.0
218 1 40.0 20.8 1.6
219 1 41.6 19.2 0.0
220 3 43.2 20.8 1.6
221 3 44.8 19.2 0.0
222 3 46.4 20.8 1.6
223 3 48.0 19.2 0.0
224 1 49.6 20.8 1.6
225 3 0.0 22.4 0.0
226 3 1.6 24.0 1.6
227 3 3.2 22.4 0.0
228 3 4.8 24.0 1.6
229 3 6.4 22.4 0.0
230 2 8.0 24.0 1.6
231 1 9.6 22.4 0.0
232 1 11.2 24.0 1.6
233 3 12.8 22.4 0.0
234 1 14.4 24.0 1.6
235 1 16.0 22.4 0.0
236 3 17.6 24.0 1.6
237 3 19.2 22.4 0.0
238 3 20.8 24.0 1.6
239 3 22.4 22.4 0.0
240 1 24.0 24.0 1.6
241 1 25.6 22.4 0.0
242 2 27.2 24.0 1.6
243 3 28.8 22.4 0.0
244 1 30.4 24.0 1.6
245 3 32.0 22.4 0.0
246 1 33.6 24.0 1.6
247 1 35.2 22.4 0.0
248 1 36.8 24.0 1.6
249 1 38.4 22.4 0.0
250 1 40.0 24.0 1.6
251 3 41.6 22.4 0.0
252 1 43.2 24.0 1.6
253 3 44.8 22.4 0.0
254 3 46.4 24.0 1.6
255 3 48.0 22.4 0.0
256 3 49.6 24.0 1.6
257 3 0.0 25.6 0.0
258 3 1.6 27.2 1.6
259 1 3.2 25.6 0.0
260 2 4.8 27.2 1.6
261 1 6.4 25.6 0.0
262 2 8.0 27.2 1.6
263 3 9.6 25.6 0.0
264 3 11.2 27.2 1.6
265 3 12.8 25.6 0.0
266 3 14.4 27.2 1.6
267 3 16.0 25.6 0.0
268 3 17.6 27.2 1.6
269 3 19.2 25.6 0.0
270 3 20.8 27.2 1.6
271 3 22.4 25.6 0.0
272 1 24.0 27.2 1.6
273 3 25.6 25.6 0.0
274 3 27.2 27.2 1.6
275 3 28.8 25.6 0.0
276 3 30.4 27.2 1.6
277 3 32.0 25.6 0.0
278 3 33.6 27.2 1.6
279 1 35.2 25.6 0.0
280 1 36.8 27.2 1.6
281 1 38.4 25.6 0.0
282 3 40.0 27.2 1.6
283 2 41.6 25.6 0.0
284 3 43.2 27.2 1.6
285 3 44.8 25.6 0.0
286 1 46.4 27.2 1.6
287 3 48.0 25.6 0.0
288 1 49.6 27.2 1.6
289 3 0.0 28.8 0.0
290 3 1.6 30.4 1.6
291 1 3.2 28.8 0.0
292 1 4.8 30.4 1.6
293 1 6.4 28.8 0.0
294 3 8.0 30.4 1.6
295 3 9.6 28.8 0.0
296 1 11.2 30.4 1.6
297 1 12.8 28.8 0.0
298 3 14.4 30.4 1.6
299 1 16.0 28.8 0.0
300 3 17.6 30.4 1.6
301 3 19.2 28.8 0.0
302 2 20.8 30.4 1.6
303 1 22.4 28.8 0.0
304 1 24.0 30.4 1.6
305 1 25.6 28.8 0.0
306 2 27.2 30.4 1.6
307 2 28.8 28.8 0.0
308 2 30.4 30.4 1.6
309 1 32.0 28.8 0.0
310 3 33.6 30.4 1.6
311 3 35.2 28.8 0.0
312 1 36.8 30.4 1.6
313 1 38.4 28.8 0.0
314 3 40.0 30.4 1.6
315 3 41.6 28.8 0.0
316 1 43.2 30.4 1.6
317 1 44.8 28.8 0.0
318 3 46.4 30.4 1.6
319 3 48.0 28.8 0.0
320 2 49.6 30.4 1.6
321 2 0.0 32.0 0.0
322 1 1.6 33.6 1.6
323 1 3.2 32.0 0.0
324 2 4.8 33.6 1.6
325 3 6.4 32.0 0.0
326 1 8.0 33.6 1.6
327 1 9.6 32.0 0.0
328 2 11.2 33.6 1.6
329 1 12.8 32.0 0.0
330 3 14.4 33.6 1.6
331 2 16.0 32.0 0.0
332 3 17.6 33.6 1.6
333 1 19.2 32.0 0.0
334 1 20.8 33.6 1.6
335 1 22.4 32.0 0.0
336 1 24.0 33.6 1.6
337 3 25.6 32.0 0.0
338 1 27.2 33.6 1.6
339 3 28.8 32.0 0.0
340 3 30.4 33.6 1.6
341 1 32.0 32.0 0.0
342 2 33.6 33.6 1.6
343 3 35.2 32.0 0.0
344 3 36.8 33.6 1.6
345 1 38.4 32.0 0.0
346 1 40.0 33.6 1.6
347 3 41.6 32.0 0.0
348 3 43.2 33.6 1.6
349 3 44.8 32.0 0.0
350 2 46.4 33.6 1.6
351 3 48.0 32.0 0.0
352 1 49.6 33.6 1.6
353 3 0.0 35.2 0.0
354 3 1.6 36.8 1.6
355 1 3.2 35.2 0.0
356 3 4.8 36.8 1.6
357 1 6.4 35.2 0.0
358 3 8.0 36.8 1.6
359 1 9.6 35.2 0.0
360 3 11.2 36.8 1.6
361 1 12.8 35.2 0.0
362 3 14.4 36.8 1.6
363 3 16.0 35.2 0.0
364 1 17.6 36.8 1.6
365 3 19.2 35.2 0.0
366 1 20.8 36.8 1.6
367 3 22.4 35.2 0.0
368 1 24.0 36.8 1.6
369 3 25.6 35.2 0.0
370 3 27.2 36.8 1.6
371 1 28.8 35.2 0.0
372 3 30.4 36.8 1.6
373 3 32.0 35.2 0.0
374 3 33.6 36.8 1.6
375 3 35.2 35.2 0.0
376 1 36.8 36.8 1.6
377 1 38.4 35.2 0.0
378 1 40.0 36.8 1.6
379 1 41.6 35.2 0.0
380 3 43.2 36.8 1.6
381 3 44.8 35.2 0.0
382 3 46.4 36.8 1.6
383 3 48.0 35.2 0.0
384 1 49.6 36.8 1.6
385 3 0.0 38.4 0.0
386 1 1.6 40.0 1.6
387 3 3.2 38.4 0.0
388 3 4.8 40.0 1.6
389 3 6.4 38.4 0.0
390 3 8.0 40.0 1.6
391 3 9.6 38.4 0.0
392 1 11.2 40.0 1.6
393 2 12.8 38.4 0.0
394 1 14.4 40.0 1.6
395 1 16.0 38.4 0.0
396 3 17.6 40.0 1.6
397 3 19.2 38.4 0.0
398 2 20.8 40.0 1.6
399 1 22.4 38.4 0.0
400 1 24.0 40.0 1.6
401 3 25.6 38.4 0.0
402 1 27.2 40.0 1.6
403 3 28.8 38.4 0.0
404 1 30.4 40.0 1.6
405 1 32.0 38.4 0.0
406 1 33.6 40.0 1.6
407 3 35.2 38.4 0.0
408 1 36.8 40.0 1.6
409 1 38.4 38.4 0.0
410 1 40.0 40.0 1.6
411 1 41.6 38.4 0.0
412 1 43.2 40.0 1.6
413 1 44.8 38.4 0.0
414 3 46.4 40.0 1.6
415 3 48.0 38.4 0.0
416 3 49.6 40.0 1.6
417 1 0.0 41.6 0.0
418 1 1.6 43.2 1.6
419 3 3.2 41.6 0.0
420 3 4.8 43.2 1.6
421 1 6.4 41.6 0.0
422 3 8.0 43.2 1.6
423 1 9.6 41.6 0.0
424 3 11.2 43.2 1.6
425 2 12.8 41.6 0.0
426 2 14.4 43.2 1.6
427 3 16.0 41.6 0.0
428 3 17.6 43.2 1.6
429 1 19.2 41.6 0.0
430 3 20.8 43.2 1.6
431 3 22.4 41.6 0.0
432 2 24.0 43.2 1.6
433 1 25.6 41.6 0.0
434 1 27.2 43.2 1.6
435 1 28.8 41.6 0.0
436 1 30.4 43.2 1.6
437 1 32.0 41.6 0.0
438 3 33.6 43.2 1.6
439 1 35.2 41.6 0.0
440 3 36.8 43.2 1.6
441 2 38.4 41.6 0.0
442 3 40.0 43.2 1.6
443 3 41.6 41.6 0.0
444 1 43.2 43.2 1.6
445 1 44.8 41.6 0.0
446 3 46.4 43.2 1.6
447 3 48.0 41.6 0.0
448 3 49.6 43.2 1.6
449 3 0.0 44.8 0.0
450 1 1.6 46.4 1.6
451 1 3.2 44.8 0.0
452 3 4.8 46.4 1.6
453 3 6.4 44.8 0.0
454 1 8.0 46.4 1.6
455 3 9.6 44.8 0.0
456 2 11.2 46.4 1.6
457 1 12.8 44.8 0.0
458 3 14.4 46.4 1.6
459 3 16.0 44.8 0.0
460 1 17.6 46.4 1.6
461 1 19.2 44.8 0.0
462 1 20.8 46.4 1.6
463 1 22.4 44.8 0.0
464 3 24.0 46.4 1.6
465 1 25.6 44.8 0.0
466 1 27.2 46.4 1.6
467 1 28.8 44.8 0.0
468 1 30.4 46.4 1.6
469 1 32.0 44.8 0.0
470 1 33.6 46.4 1.6
471 1 35.2 44.8 0.0
472 1 36.8 46.4 1.6
473 1 38.4 44.8 0.0
474 1 40.0 46.4 1.6
475 1 41.6 44.8 0.0
476 1 43.2 46.4 1.6
477 1 44.8 44.8 0.0
478 1 46.4 46.4 1.6
479 3 48.0 44.8 0.0
480 3 49.6 46.4 1.6
481 1 0.0 48.0 0.0
482 1 1.6 49.6 1.6
483 3 3.2 48.0 0.0
484 2 4.8 49.6 1.6
485 3 6.4 48.0 0.0
486 2 8.0 49.6 1.6
487 1 9.6 48.0 0.0
488 3 11.2 49.6 1.6
489 1 12.8 48.0 0.0
490 3 14.4 49.6 1.6
491 3 16.0 48.0 0.0
492 2 17.6 49.6 1.6
493 3 19.2 48.0 0.0
494 3 20.8 49.6 1.6
495 1 22.4 48.0 0.0
496 3 24.0 49.6 1.6
497 2 25.6 48.0 0.0
498 3 27.2 49.6 1.6
499 1 28.8 48.0 0.0
500 3 30.4 49.6 1.6
501 3 32.0 48.0 0.0
502 2 33.6 49.6 1.6
503 2 35.2 48.0 0.0
504 2 36.8 49.6 1.6
505 2 38.4 48.0 0.0
506 3 40.0 49.6 1.6
507 2 41.6 48.0 0.0
508 3 43.2 49.6 1.6
509 3 44.8 48.0 0.0
510 2 46.4 49.6 1.6
511 1 48.0 48.0 0.0
512 3 49.6 49.6 1.6
513 3 0.0 0.0 3.2
514 2 1.6 1.6 4.8
515 3 3.2 0.0 3.2
516 1 4.8 1.6 4.8
517 3 6.4 0.0 3.2
518 3 8.0 1.6 4.8
519 3 9.6 0.0 3.2
520 3 11.2 1.6 4.8
521 1 12.8 0.0 3.2
522 3 14.4 1.6 4.8
523 1 16.0 0.0 3.2
524 3 17.6 1.6 4.8
525 2 19.2 0.0 3.2
526 3 20.8 1.6 4.8
527 3 22.4 0.0 3.2
528 1 24.0 1.6 4.8
529 3 25.6 0.0 3.2
530 1 27.2 1.6 4.8
531 3 28.8 0.0 3.2
532 3 30.4 1.6 4.8
533 2 32.0 0.0 3.2
534 1 33.6 1.6 4.8
535 3 35.2 0.0 3.2
536 1 36.8 1.6 4.8
537 1 38.4 0.0 3.2
538 1 40.0 1.6 4.8
539 1 41.6 0.0 3.2
540 3 43.2 1.6 4.8
541 3 44.8 0.0 3.2
542 1 46.4 1.6 4.8
543 2 48.0 0.0 3.2
544 1 49.6 1.6 4.8
545 3 0.0 3.2 3.2
546 1 1.6 4.8 4.8
547 3 3.2 3.2 3.2
548 3 4.8 4.8 4.8
549 3 6.4 3.2 3.2
550 2 8.0 4.8 4.8
551 3 9.6 3.2 3.2
552 1 11.2 4.8 4.8
553 3 12.8 3.2 3.2
554 3 14.4 4.8 4.8
555 1 16.0 3.2 3.2
556 1 17.6 4.8 4.8
557 3 19.2 3.2 3.2
558 3 20.8 4.8 4.8
559 3 22.4 3.2 3.2
560 1 24.0 4.8 4.8
561 1 25.6 3.2 3.2
562 2 27.2 4.8 4.8
563 1 28.8 3.2 3.2
564 3 30.4 4.8 4.8
565 3 32.0 3.2 3.2
566 1 33.6 4.8 4.8
567 3 35.2 3.2 3.2
568 3 36.8 4.8 4.8
569 1 38.4 3.2 3.2
570 1 40.0 4.8 4.8
571 3 41.6 3.2 3.2
572 1 43.2 4.8 4.8
573 2 44.8 3.2 3.2
574 2 46.4 4.8 4.8
575 1 48.0 3.2 3.2
576 3 49.6 4.8 4.8
577 3 0.0 6.4 3.2
578 3 1.6 8.0 4.8
579 1 3.2 6.4 3.2
580 1 4.8 8.0 4.8
581 3 6.4 6.4 3.2
582 3 8.0 8.0 4.8
583 3 9.6 6.4 3.2
584 3 11.2 8.0 4.8
585 3 12.8 6.4 3.2
586 3 14.4 8.0 4.8
587 2 16.0 6.4 3.2
588 1 17.6 8.0 4.8
589 1 19.2 6.4 3.2
590 1 20.8 8.0 4.8
591 3 22.4 6.4 3.2
592 3 24.0 8.0 4.8
593 3 25.6 6.4 3.2
594 3 27.2 8.0 4.8
595 2 28.8 6.4 3.2
596 1 30.4 8.0 4.8
597 1 32.0 6.4 3.2
598 1 33.6 8.0 4.8
599 3 35.2 6.4 3.2
600 3 36.8 8.0 4.8
601 1 38.4 6.4 3.2
602 1 40.0 8.0 4.8
603 1 41.6 6.4 3.2
604 3 43.2 8.0 4.8
605 3 44.8 6.4 3.2
606 1 46.4 8.0 4.8
607 1 48.0 6.4 3.2
608 3 49.6 8.0 4.8
609 1 0.0 9.6 3.2
610 1 1.6 11.2 4.8
611 3 3.2 9.6 3.2
612 3 4.8 11.2 4.8
613 3 6.4 9.6 3.2
614 3 8.0 11.2 4.8
615 3 9.6 9.6 3.2
616 1 11.2 11.2 4.8
617 1 12.8 9.6 3.2
618 1 14.4 11.2 4.8
619 3 16.0 9.6 3.2
620 2 17.6 11.2 4.8
621 3 19.2 9.6 3.2
622 1 20.8 11.2 4.8
623 3 22.4 9.6 3.2
624 1 24.0 11.2 4.8
625 3 25.6 9.6 3.2
626 2 27.2 11.2 4.8
627 3 28.8 9.6 3.2
628 1 30.4 11.2 4.8
629 1 32.0 9.6 3.2
630 3 33.6 11.2 4.8
631 1 35.2 9.6 3.2
632 3 36.8 11.2 4.8
633 3 38.4 9.6 3.2
634 3 40.0 11.2 4.8
635 3 41.6 9.6 3.2
636 1 43.2 11.2 4.8
637 1 44.8 9.6 3.2
638 1 46.4 11.2 4.8
639 1 48.0 9.6 3.2
640 3 49.6 11.2 4.8
641 1 0.0 12.8 3.2
642 3 1.6 14.4 4.8
643 3 3.2 12.8 3.2
644 2 4.8 14.4 4.8
645 3 6.4 12.8 3.2
646 1 8.0 14.4 4.8
647 1 9.6 12.8 3.2
648 1 11.2 14.4 4.8
649 3 12.8 12.8 3.2
650 3 14.4 14.4 4.8
651 3 16.0 12.8 3.2
652 3 17.6 14.4 4.8
653 1 19.2 12.8 3.2
654 1 20.8 14.4 4.8
655 1 22.4 12.8 3.2
656 3 24.0 14.4 4.8
657 3 25.6 12.8 3.2
658 3 27.2 14.4 4.8
659 2 28.8 12.8 3.2
660 3 30.4 14.4 4.8
661 3 32.0 12.8 3.2
662 3 33.6 14.4 4.8
663 3 35.2 12.8 3.2
664 3 36.8 14.4 4.8
665 3 38.4 12.8 3.2
666 3 40.0 14.4 4.8
667 3 41.6 12.8 3.2
668 3 43.2 14.4 4.8
669 1 44.8 12.8 3.2
670 1 46.4 14.4 4.8
671 3 48.0 12.8 3.2
672 1 49.6 14.4 4.8
673 3 0.0 16.0 3.2
674 1 1.6 17.6 4.8
675 3 3.2 16.0 3.2
676 3 4.8 17.6 4.8
677 1 6.4 16.0 3.2
678 1 8.0 17.6 4.8
679 3 9.6 16.0 3.2
680 3 11.2 17.6 4.8
681 3 12.8 16.0 3.2
682 3 14.4 17.6 4.8
683 1 16.0 16.0 3.2
684 2 17.6 17.6 4.8
685 3 19.2 16.0 3.2
686 1 20.8 17.6 4.8
687 3 22.4 16.0 3.2
688 3 24.0 17.6 4.8
689 2 25.6 16.0 3.2
690 3 27.2 17.6 4.8
691 3 28.8 16.0 3.2
692 3 30.4 17.6 4.8
693 3 32.0 16.0 3.2
694 1 33.6 17.6 4.8
695 3 35.2 16.0 3.2
696 3 36.8 17.6 4.8
697 1 38.4 16.0 3.2
698 2 40.0 17.6 4.8
699 1 41.6 16.0 3.2
700 3 43.2 17.6 4.8
701 1 44.8 16.0 3.2
702 1 46.4 17.6 4.8
703 3 48.0 16.0 3.2
704 3 49.6 17.6 4.8
705 1 0.0 19.2 3.2
706 3 1.6 20.8 4.8
707 1 3.2 19.2 3.2
708 1 4.8 20.8 4.8
709 1 6.4 19.2 3.2
710 1 8.0 20.8 4.8
711 3 9.6 19.2 3.2
712 3 11.2 20.8 4.8
713 3 12.8 19.2 3.2
714 3 14.4 20.8 4.8
715 2 16.0 19.2 3.2
716 1 17.6 20.8 4.8
717 3 19.2 19.2 3.2
718 3 20.8 20.8 4.8
719 1 22.4 19.2 3.2
720 2 24.0 20.8 4.8
721 1 25.6 19.2 3.2
722 2 27.2 20.8 4.8
723 3 28.8 19.2 3.2
724 1 30.4 20.8 4.8
725 3 32.0 19.2 3.2
726 1 33.6 20.8 4.8
727 3 35.2 19.2 3.2
728 3 36.8 20.8 4.8
729 2 38.4 19.2 3.2
730 3 40.0 20.8 4.8
731 3 41.6 19.2 3.2
732 1 43.2 20.8 4.8
733 2 44.8 19.2 3.2
734 3 46.4 20.8 4.8
735 3 48.0 19.2 3.2
736 1 49.6 20.8 4.8
737 1 0.0 22.4 3.2
738 1 1.6 24.0 4.8
739 1 3.2 22.4 3.2
740 3 4.8 24.0 4.8
741 2 6.4 22.4 3.2
742 3 8.0 24.0 4.8
743 1 9.6 22.4 3.2
744 3 11.2 24.0 4.8
745 1 12.8 22.4 3.2
746 2 14.4 24.0 4.8
747 1 16.0 22.4 3.2
748 3 17.6 24.0 4.8
749 1 19.2 22.4 3.2
750 3 20.8 24.0 4.8
751 3 22.4 22.4 3.2
752 1 24.0 24.0 4.8
753 2 25.6 22.4 3.2
754 3 27.2 24.0 4.8
755 3 28.8 22.4 3.2
756 1 30.4 24.0 4.8
757 2 32.0 22.4 3.2
758 1 33.6 24.0 4.8
759 3 35.2 22.4 3.2
760 1 36.8 24.0 4.8
761 3 38.4 22.4 3.2
762 3 40.0 24.0 4.8
763 3 41.6 22.4 3.2
764 1 43.2 24.0 4.8
765 3 44.8 22.4 3.2
766 1 46.4 24.0 4.8
767 1 48.0 22.4 3.2
768 3 49.6 24.0 4.8
769 1 0.0 25.6 3.2
770 3 1.6 27.2 4.8
771 3 3.2 25.6 3.2
772 1 4.8 27.2 4.8
773 3 6.4 25.6 3.2
774 1 8.0 27.2 4.8
775 2 9.6 25.6 3.2
776 2 11.2 27.2 4.8
777 2 12.8 25.6 3.2
778 3 14.4 27.2 4.8
779 3 16.0 25.6 3.2
780 3 17.6 27.2 4.8
781 1 19.2 25.6 3.2
782 3 20.8 27.2 4.8
783 3 22.4 25.6 3.2
784 1 24.0 27.2 4.8
785 3 25.6 25.6 3.2
786 3 27.2 27.2 4.8
787 3 28.8 25.6 3.2
788 1 30.4 27.2 4.8
789 1 32.0 25.6 3.2
790 2 33.6 27.2 4.8
791 3 35.2 25.6 3.2
792 3 36.8 27.2 4.8
793 1 38.4 25.6 3.2
794 1 40.0 27.2 4.8
795 3 41.6 25.6 3.2
796 3 43.2 27.2 4.8
797 2 44.8 25.6 3.2
798 1 46.4 27.2 4.8
799 2 48.0 25.6 3.2
800 1 49.6 27.2 4.8
801 1 0.0 28.8 3.2
802 1 1.6 30.4 4.8
803 3 3.2 28.8 3.2
804 3 4.8 30.4 4.8
805 3 6.4 28.8 3.2
806 2 8.0 30.4 4.8
807 1 9.6 28.8 3.2
808 2 11.2 30.4 4.8
809 3 12.8 28.8 3.2
810 1 14.4 30.4 4.8
811 1 16.0 28.8 3.2
812 3 17.6 30.4 4.8
813 3 19.2 28.8 3.2
814 1 20.8 30.4 4.8
815 3 22.4 28.8 3.2
816 1 24.0 30.4 4.8
817 1 25.6 28.8 3.2
818 1 27.2 30.4 4.8
819 3 28.8 28.8 3.2
820 3 30.4 30.4 4.8
821 1 32.0 28.8 3.2
822 3 33.6 30.4 4.8
823 3 35.2 28.8 3.2
824 2 36.8 30.4 4.8
825 2 38.4 28.8 3.2
826 1 40.0 30.4 4.8
827 2 41.6 28.8 3.2
828 2 43.2 30.4 4.8
829 3 44.8 28.8 3.2
830 3 46.4 30.4 4.8
831 3 48.0 28.8 3.2
832 3 49.6 30.4 4.8
833 3 0.0 32.0 3.2
834 3 1.6 33.6 4.8
835 1 3.2 32.0 3.2
836 1 4.8 33.6 4.8
837 3 6.4 32.0 3.2
838 1 8.0 33.6 4.8
839 1 9.6 32.0 3.2
840 3 11.2 33.6 4.8
841 3 12.8 32.0 3.2
842 2 14.4 33.6 4.8
843 3 16.0 32.0 3.2
844 1 17.6 33.6 4.8
845 1 19.2 32.0 3.2
846 3 20.8 33.6 4.8
847 1 22.4 32.0 3.2
848 1 24.0 33.6 4.8
849 3 25.6 32.0 3.2
850 1 27.2 33.6 4.8
851 3 28.8 32.0 3.2
852 1 30.4 33.6 4.8
853 1 32.0 32.0 3.2
854 3 33.6 33.6 4.8
855 1 35.2 32.0 3.2
856 1 36.8 33.6 4.8
857 1 38.4 32.0 3.2
858 3 40.0 33.6 4.8
859 3 41.6 32.0 3.2
860 1 43.2 33.6 4.8
861 3 44.8 32.0 3.2
862 3 46.4 33.6 4.8
863 1 48.0 32.0 3.2
864 1 49.6 33.6 4.8
865 3 0.0 35.2 3.2
866 3 1.6 36.8 4.8
867 1 3.2 35.2 3.2
868 3 4.8 36.8 4.8
869 3 6.4 35.2 3.2
870 3 8.0 36.8 4.8
871 3 9.6 35.2 3.2
872 1 11.2 36.8 4.8
873 1 12.8 35.2 3.2
874 1 14.4 36.8 4.8
875 3 16.0 35.2 3.2
876 3 17.6 36.8 4.8
877 3 19.2 35.2 3.2
878 2 20.8 36.8 4.8
879 3 22.4 35.2 3.2
880 2 24.0 36.8 4.8
881 3 25.6 35.2 3.2
882 1 27.2 36.8 4.8
883 3 28.8 35.2 3.2
884 1 30.4 36.8 4.8
885 1 32.0 35.2 3.2
886 1 33.6 36.8 4.8
887 3 35.2 35.2 3.2
888 1 36.8 36.8 4.8
889 1 38.4 35.2 3.2
890 3 40.0 36.8 4.8
891 3 41.6 35.2 3.2
892 1 43.2 36.8 4.8
893 3 44.8 35.2 3.2
894 3 46.4 36.8 4.8
895 1 48.0 35.2 3.2
896 3 49.6 36.8 4.8
897 3 0.0 38.4 3.2
898 1 1.6 40.0 4.8
899 3 3.2 38.4 3.2
900 3 4.8 40.0 4.8
901 1 6.4 38.4 3.2
902 2 8.0 40.0 4.8
903 1 9.6 38.4 3.2
904 3 11.2 40.0 4.8
905 1 12.8 38.4 3.2
906 1 14.4 40.0 4.8
907 1 16.0 38.4 3.2
908 3 17.6 40.0 4.8
909 1 19.2 38.4 3.2
910 3 20.8 40.0 4.8
911 3 22.4 38.4 3.2
912 1 24.0 40.0 4.8
913 3 25.6 38.4 3.2
914 1 27.2 40.0 4.8
915 3 28.8 38.4 3.2
916 3 30.4 40.0 4.8
917 1 32.0 38.4 3.2
918 3 33.6 40.0 4.8
919 1 35.2 38.4 3.2
920 3 36.8 40.0 4.8
921 3 38.4 38.4 3.2
922 1 40.0 40.0 4.8
923 3 41.6 38.4 3.2
924 3 43.2 40.0 4.8
925 3 44.8 38.4 3.2
926 1 46.4 40.0 4.8
927 3 48.0 38.4 3.2
928 1 49.6 40.0 4.8
929 3 0.0 41.6 3.2
930 3 1.6 43.2 4.8
931 3 3.2 41.6 3.2
932 3 4.8 43.2 4.8
933 2 6.4 41.6 3.2
934 2 8.0 43.2 4.8
935 3 9.6 41.6 3.2
936 1 11.2 43.2 4.8
937 3 12.8 41.6 3.2
938 3 14.4 43.2 4.8
939 3 16.0 41.6 3.2
940 1 17.6 43.2 4.8
941 3 19.2 41.6 3.2
942 3 20.8 43.2 4.8
943 1 22.4 41.6 3.2
944 3 24.0 43.2 4.8
945 2 25.6 41.6 3.2
946 3 27.2 43.2 4.8
947 3 28.8 41.6 3.2
948 3 30.4 43.2 4.8
949 3 32.0 41.6 3.2
950 3 33.6 43.2 4.8
951 1 35.2 41.6 3.2
952 3 36.8 43.2 4.8
953 3 38.4 41.6 3.2
954 3 40.0 43.2 4.8
955 3 41.6 41.6 3.2
956 3 43.2 43.2 4.8
957 3 44.8 41.6 3.2
958 1 46.4 43.2 4.8
959 2 48.0 41.6 3.2
960 3 49.6 43.2 4.8
961 3 0.0 44.8 3.2
962 1 1.6 46.4 4.8
963 3 3.2 44.8 3.2
964 1 4.8 46.4 4.8
965 1 6.4 44.8 3.2
966 3 8.0 46.4 4.8
967 1 9.6 44.8 3.2
968 1 11.2 46.4 4.8
969 2 12.8 44.8 3.2
970 3 14.4 46.4 4.8
971 3 16.0 44.8 3.2
972 3 17.6 46.4 4.8
973 2 19.2 44.8 3.2
974 2 20.8 46.4 4.8
975 1 22.4 44.8 3.2
976 1 24.0 46.4 4.8
977 1 25.6 44.8 3.2
978 3 27.2 46.4 4.8
979 1 28.8 44.8 3.2
980 3 30.4 46.4 4.8
981 1 32.0 44.8 3.2
982 1 33.6 46.4 4.8
983 3 35.2 44.8 3.2
984 1 36.8 46.4 4.8
985 3 38.4 44.8 3.2
986 1 40.0 46.4 4.8
987 1 41.6 44.8 3.2
988 3 43.2 46.4 4.8
989 3 44.8 44.8 3.2
990 1 46.4 46.4 4.8
991 3 48.0 44.8 3.2
992 3 49.6 46.4 4.8
993 3 0.0 48.0 3.2
994 3 1.6 49.6 4.8
995 1 3.2 48.0 3.2
996 2 4.8 49.6 4.8
997 1 6.4 48.0 3.2
998 1 8.0 49.6 4.8
999 1 9.6 48.0 3.2
1000 1 11.2 49.6 4.8
1001 3 12.8 48.0 3.2
1002 1 14.4 49.6 4.8
1003 3 16.0 48.0 3.2
1004 1 17.6 49.6 4.8
1005 2 19.2 48.0 3.2
1006 3 20.8 49.6 4.8
1007 1 22.4 48.0 3.2
1008 3 24.0 49.6 4.8
1009 1 25.6 48.0 3.2
1010 2 27.2 49.6 4.8
1011 3 28.8 48.0 3.2
1012 1 30.4 49.6 4.8
1013 2 32.0 48.0 3.2
1014 3 33.6 49.6 4.8
1015 3 35.2 48.0 3.2
1016 3 36.8 49.6 4.8
1017 1 38.4 48.0 3.2
1018 3 40.0 49.6 4.8
1019 1 41.6 48.0 3.2
1020 3 43.2 49.6 4.8
1021 3 44.8 48.0 3.2
1022 3 46.4 49.6 4.8
1023 1 48.0 48.0 3.2
1024 1 49.6 49.6 4.8
1025 3 0.0 0.0 6.4
1026 3 1.6 1.6 8.0
1027 1 3.2 0.0 6.4
1028 1 4.8 1.6 8.0
1029 3 6.4 0.0 6.4
1030 2 8.0 1.6 8.0
1031 1 9.6 0.0 6.4
1032 3 11.2 1.6 8.0
1033 3 12.8 0.0 6.4
1034 3 14.4 1.6 8.0
1035 3 16.0 0.0 6.4
1036 1 17.6 1.6 8.0
1037 3 19.2 0.0 6.4
1038 3 20.8 1.6 8.0
1039 1 22.4 0.0 6.4
1040 3 24.0 1.6 8.0
1041 1 25.6 0.0 6.4
1042 1 27.2 1.6 8.0
1043 1 28.8 0.0 6.4
1044 1 30.4 1.6 8.0
1045 1 32.0 0.0 6.4
1046 3 33.6 1.6 8.0
1047 3 35.2 0.0 6.4
1048 3 36.8 1.6 8.0
1049 1 38.4 0.0 6.4
1050 1 40.0 1.6 8.0
1051 2 41.6 0.0 6.4
1052 2 43.2 1.6 8.0
1053 1 44.8 0.0 6.4
1054 1 46.4 1.6 8.0
1055 3 48.0 0.0 6.4
1056 1 49.6 1.6 8.0
1057 2 0.0 3.2 6.4
1058 1 1.6 4.8 8.0
1059 2 3.2 3.2 6.4
1060 1 4.8 4.8 8.0
1061 1 6.4 3.2 6.4
1062 3 8.0 4.8 8.0
1063 1 9.6 3.2 6.4
1064 1 11.2 4.8 8.0
1065 1 12.8 3.2 6.4
1066 1 14.4 4.8 8.0
1067 3 16.0 3.2 6.4
1068 2 17.6 4.8 8.0
1069 3 19.2 3.2 6.4
1070 1 20.8 4.8 8.0
1071 1 22.4 3.2 6.4
1072 1 24.0 4.8 8.0
1073 1 25.6 3.2 6.4
1074 3 27.2 4.8 8.0
1075 1 28.8 3.2 6.4
1076 1 30.4 4.8 8.0
1077 2 32.0 3.2 6.4
1078 3 33.6 4.8 8.0
1079 1 35.2 3.2 6.4
1080 3 36.8 4.8 8.0
1081 1 38.4 3.2 6.4
1082 3 40.0 4.8 8.0
1083 1 41.6 3.2 6.4
1084 1 43.2 4.8 8.0
1085 2 44.8 3.2 6.4
1086 1 46.4 4.8 8.0
1087 1 48.0 3.2 6.4
1088 1 49.6 4.8 8.0
1089 3 0.0 6.4 6.4
1090 1 1.6 8.0 8.0
1091 2 3.2 6.4 6.4
1092 2 4.8 8.0 8.0
1093 1 6.4 6.4 6.4
1094 2 8.0 8.0 8.0
1095 3 9.6 6.4 6.4
1096 1 11.2 8.0 8.0
1097 1 12.8 6.4 6.4
1098 3 14.4 8.0 8.0
1099 1 16.0 6.4 6.4
1100 1 17.6 8.0 8.0
1101 3 19.2 6.4 6.4
1102 3 20.8 8.0 8.0
1103 2 22.4 6.4 6.4
1104 1 24.0 8.0 8.0
1105 2 25.6 6.4 6.4
1106 3 27.2 8.0 8.0
1107 3 28.8 6.4 6.4
1108 2 30.4 8.0 8.0
1109 3 32.0 6.4 6.4
1110 2 33.6 8.0 8.0
1111 1 35.2 6.4 6.4
1112 2 36.8 8.0 8.0
1113 1 38.4 6.4 6.4
1114 1 40.0 8.0 8.0
1115 3 41.6 6.4 6.4
1116 1 43.2 8.0 8.0
1117 3 44.8 6.4 6.4
1118 3 46.4 8.0 8.0
1119 3 48.0 6.4 6.4
1120 1 49.6 8.0 8.0
1121 3 0.0 9.6 6.4
1122 1 1.6 11.2 8.0
1123 3 3.2 9.6 6.4
1124 3 4.8 11.2 8.0
1125 3 6.4 9.6 6.4
1126 3 8.0 11.2 8.0
1127 3 9.6 9.6 6.4
1128 1 11.2 11.2 8.0
1129 3 12.8 9.6 6.4
1130 3 14.4 11.2 8.0
1131 3 16.0 9.6 6.4
1132 3 17.6 11.2 8.0
1133 3 19.2 9.6 6.4
1134 1 20.8 11.2 8.0
1135 1 22.4 9.6 6.4
1136 3 24.0 11.2 8.0
1137 3 25.6 9.6 6.4
1138 1 27.2 11.2 8.0
1139 3 28.8 9.6 6.4
1140 1 30.4 11.2 8.0
1141 3 32.0 9.6 6.4
1142 1 33.6 11.2 8.0
1143 1 35.2 9.6 6.4
1144 3 36.8 11.2 8.0
1145 1 38.4 9.6 6.4
1146 1 40.0 11.2 8.0
1147 1 41.6 9.6 6.4
1148 2 43.2 11.2 8.0
1149 3 44.8 9.6 6.4
1150 2 46.4 11.2 8.0
1151 1 48.0 9.6 6.4
1152 1 49.6 11.2 8.0
1153 3 0.0 12.8 6.4
1154 1 1.6 14.4 8.0
1155 1 3.2 12.8 6.4
1156 3 4.8 14.4 8.0
1157 1 6.4 12.8 6.4
1158 3 8.0 14.4 8.0
1159 1 9.6 12.8 6.4
1160 3 11.2 14.4 8.0
1161 3 12.8 12.8 6.4
1162 1 14.4 14.4 8.0
1163 3 16.0 12.8 6.4
1164 1 17.6 14.4 8.0
1165 3 19.2 12.8 6.4
1166 3 20.8 14.4 8.0
1167 1 22.4 12.8 6.4
1168 1 24.0 14.4 8.0
1169 1 25.6 12.8 6.4
1170 3 27.2 14.4 8.0
1171 1 28.8 12.8 6.4
1172 3 30.4 14.4 8.0
1173 1 32.0 12.8 6.4
1174 1 33.6 14.4 8.0
1175 1 35.2 12.8 6.4
1176 3 36.8 14.4 8.0
1177 1 38.4 12.8 6.4
1178 2 40.0 14.4 8.0
1179 3 41.6 12.8 6.4
1180 3 43.2 14.4 8.0
1181 1 44.8 12.8 6.4
1182 1 46.4 14.4 8.0
1183 1 48.0 12.8 6.4
1184 2 49.6 14.4 8.0
1185 3 0.0 16.0 6.4
1186 3 1.6 17.6 8.0
1187 2 3.2 16.0 6.4
1188 3 4.8 17.6 8.0
1189 3 6.4 16.0 6.4
1190 3 8.0 17.6 8.0
1191 3 9.6 16.0 6.4
1192 1 11.2 17.6 8.0
1193 3 12.8 16.0 6.4
1194 3 14.4 17.6 8.0
1195 1 16.0 16.0 6.4
1196 3 17.6 17.6 8.0
1197 1 19.2 16.0 6.4
1198 1 20.8 17.6 8.0
1199 1 22.4 16.0 6.4
1200 1 24.0 17.6 8.0
1201 1 25.6 16.0 6.4
1202 3 27.2 17.6 8.0
1203 3 28.8 16.0 6.4
1204 3 30.4 17.6 8.0
1205 3 32.0 16.0 6.4
1206 3 33.6 17.6 8.0
1207 1 35.2 16.0 6.4
1208 1 36.8 17.6 8.0
1209 1 38.4 16.0 6.4
1210 3 40.0 17.6 8.0
1211 3 41.6 16.0 6.4
1212 3 43.2 17.6 8.0
1213 1 44.8 16.0 6.4
1214 1 46.4 17.6 8.0
1215 1 48.0 16.0 6.4
1216 1 49.6 17.6 8.0
1217 1 0.0 19.2 6.4
1218 3 1.6 20.8 8.0
1219 3 3.2 19.2 6.4
1220 3 4.8 20.8 8.0
1221 3 6.4 19.2 6.4
1222 1 8.0 20.8 8.0
1223 2 9.6 19.2 6.4
1224 2 11.2 20.8 8.0
1225 3 12.8 19.2 6.4
1226 1 14.4 20.8 8.0
1227 1 16.0 19.2 6.4
1228 3 17.6 20.8 8.0
1229 3 19.2 19.2 6.4
1230 1 20.8 20.8 8.0
1231 3 22.4 19.2 6.4
1232 3 24.0 20.8 8.0
1233 3 25.6 19.2 6.4
1234 3 27.2 20.8 8.0
1235 1 28.8 19.2 6.4
1236 3 30.4 20.8 8.0
1237 3 32.0 19.2 6.4
1238 3 33.6 20.8 8.0
1239 1 35.2 19.2 6.4
1240 1 36.8 20.8 8.0
1241 3 38.4 19.2 6.4
1242 3 40.0 20.8 8.0
1243 2 41.6 19.2 6.4
1244 1 43.2 20.8 8.0
1245 1 44.8 19.2 6.4
1246 3 46.4 20.8 8.0
1247 3 48.0 19.2 6.4
1248 3 49.6 20.8 8.0
1249 1 0.0 22.4 6.4
1250 3 1.6 24.0 8.0
1251 1 3.2 22.4 6.4
1252 3 4.8 24.0 8.0
1253 2 6.4 22.4 6.4
1254 1 8.0 24.0 8.0
1255 1 9.6 22.4 6.4
1256 3 11.2 24.0 8.0
1257 3 12.8 22.4 6.4
1258 1 14.4 24.0 8.0
1259 1 16.0 22.4 6.4
1260 3 17.6 24.0 8.0
1261 1 19.2 22.4 6.4
1262 1 20.8 24.0 8.0
1263 3 22.4 22.4 6.4
1264 1 24.0 24.0 8.0
1265 3 25.6 22.4 6.4
1266 3 27.2 24.0 8.0
1267 3 28.8 22.4 6.4
1268 3 30.4 24.0 8.0
1269 2 32.0 22.4 6.4
1270 3 33.6 24.0 8.0
1271 1 35.2 22.4 6.4
1272 1 36.8 24.0 8.0
1273 1 38.4 22.4 6.4
1274 1 40.0 24.0 8.0
1275 3 41.6 22.4 6.4
1276 3 43.2 24.0 8.0
1277 3 44.8 22.4 6.4
1278 3 46.4 24.0 8.0
1279 3 48.0 22.4 6.4
1280 1 49.6 24.0 8.0
1281 1 0.0 25.6 6.4
1282 2 1.6 27.2 8.0
1283 1 3.2 25.6 6.4
1284 1 4.8 27.2 8.0
1285 1 6.4 25.6 6.4
1286 3 8.0 27.2 8.0
1287 2 9.6 25.6 6.4
1288 1 11.2 27.2 8.0
1289 3 12.8 25.6 6.4
1290 1 14.4 27.2 8.0
1291 3 16.0 25.6 6.4
1292 3 17.6 27.2 8.0
1293 1 19.2 25.6 6.4
1294 3 20.8 27.2 8.0
1295 3 22.4 25.6 6.4
1296 1 24.0 27.2 8.0
1297 3 25.6 25.6 6.4
1298 2 27.2 27.2 8.0
1299 3 28.8 25.6 6.4
1300 1 30.4 27.2 8.0
1301 3 32.0 25.6 6.4
1302 3 33.6 27.2 8.0
1303 1 35.2 25.6 6.4
1304 1 36.8 27.2 8.0
1305 2 38.4 25.6 6.4
1306 1 40.0 27.2 8.0
1307 3 41.6 25.6 6.4
1308 3 43.2 27.2 8.0
1309 1 44.8 25.6 6.4
1310 3 46.4 27.2 8.0
1311 3 48.0 25.6 6.4
1312 1 49.6 27.2 8.0
1313 1 0.0 28.8 6.4
1314 1 1.6 30.4 8.0
1315 1 3.2 28.8 6.4
1316 3 4.8 30.4 8.0
1317 3 6.4 28.8 6.4
1318 3 8.0 30.4 8.0
1319 1 9.6 28.8 6.4
1320 1 11.2 30.4 8.0
1321 1 12.8 28.8 6.4
1322 3 14.4 30.4 8.0
1323 2 16.0 28.8 6.4
1324 3 17.6 30.4 8.0
1325 2 19.2 28.8 6.4
1326 1 20.8 30.4 8.0
1327 1 22.4 28.8 6.4
1328 3 24.0 30.4 8.0
1329 3 25.6 28.8 6.4
1330 3 27.2 30.4 8.0
1331 3 28.8 28.8 6.4
1332 1 30.4 30.4 8.0
1333 1 32.0 28.8 6.4
1334 3 33.6 30.4 8.0
1335 1 35.2 28.8 6.4
1336 1 36.8 30.4 8.0
1337 1 38.4 28.8 6.4
1338 1 40.0 30.4 8.0
1339 3 41.6 28.8 6.4
1340 3 43.2 30.4 8.0
1341 3 44.8 28.8 6.4
1342 3 46.4 30.4 8.0
1343 3 48.0 28.8 6.4
1344 3 49.6 30.4 8.0
1345 1 0.0 32.0 6.4
1346 3 1.6 33.6 8.0
1347 1 3.2 32.0 6.4
1348 1 4.8 33.6 8.0
1349 1 6.4 32.0 6.4
1350 1 8.0 33.6 8.0
1351 3 9.6 32.0 6.4
1352 1 11.2 33.6 8.0
1353 1 12.8 32.0 6.4
1354 3 14.4 33.6 8.0
1355 3 16.0 32.0 6.4
1356 1 17.6 33.6 8.0
1357 3 19.2 32.0 6.4
1358 3 20.8 33.6 8.0
1359 1 22.4 32.0 6.4
1360 2 24.0 33.6 8.0
1361 3 25.6 32.0 6.4
1362 2 27.2 33.6 8.0
1363 3 28.8 32.0 6.4
1364 2 30.4 33.6 8.0
1365 1 32.0 32.0 6.4
1366 3 33.6 33.6 8.0
1367 3 35.2 32.0 6.4
1368 3 36.8 33.6 8.0
1369 2 38.4 32.0 6.4
1370 3 40.0 33.6 8.0
1371 3 41.6 32.0 6.4
1372 3 43.2 33.6 8.0
1373 3 44.8 32.0 6.4
1374 1 46.4 33.6 8.0
1375 3 48.0 32.0 6.4
1376 1 49.6 33.6 8.0
1377 3 0.0 35.2 6.4
1378 3 1.6 36.8 8.0
1379 3 3.2 35.2 6.4
1380 1 4.8 36.8 8.0
1381 2 6.4 35.2 6.4
1382 2 8.0 36.8 8.0
1383 1 9.6 35.2 6.4
1384 3 11.2 36.8 8.0
1385 3 12.8 35.2 6.4
1386 3 14.4 36.8 8.0
1387 3 16.0 35.2 6.4
1388 1 17.6 36.8 8.0
1389 1 19.2 35.2 6.4
1390 3 20.8 36.8 8.0
1391 1 22.4 35.2 6.4
1392 3 24.0 36.8 8.0
1393 3 25.6 35.2 6.4
1394 3 27.2 36.8 8.0
1395 3 28.8 35.2 6.4
1396 3 30.4 36.8 8.0
1397 1 32.0 35.2 6.4
1398 3 33.6 36.8 8.0
1399 3 35.2 35.2 6.4
1400 3 36.8 36.8 8.0
1401 3 38.4 35.2 6.4
1402 3 40.0 36.8 8.0
1403 3 41.6 35.2 6.4
1404 3 43.2 36.8 8.0
1405 3 44.8 35.2 6.4
1406 3 46.4 36.8 8.0
1407 3 48.0 35.2 6.4
1408 3 49.6 36.8 8.0
1409 2 0.0 38.4 6.4
1410 3 1.6 40.0 8.0
1411 3 3.2 38.4 6.4
1412 2 4.8 40.0 8.0
1413 3 6.4 38.4 6.4
1414 3 8.0 40.0 8.0
1415 2 9.6 38.4 6.4
1416 1 11.2 40.0 8.0
1417 2 12.8 38.4 6.4
1418 1 14.4 40.0 8.0
1419 3 16.0 38.4 6.4
1420 1 17.6 40.0 8.0
1421 1 19.2 38.4 6.4
1422 1 20.8 40.0 8.0
1423 1 22.4 38.4 6.4
1424 1 24.0 40.0 8.0
1425 1 25.6 38.4 6.4
1426 1 27.2 40.0 8.0
1427 3 28.8 38.4 6.4
1428 3 30.4 40.0 8.0
1429 3 32.0 38.4 6.4
1430 1 33.6 40.0 8.0
1431 3 35.2 38.4 6.4
1432 1 36.8 40.0 8.0
1433 3 38.4 38.4 6.4
1434 2 40.0 40.0 8.0
1435 3 41.6 38.4 6.4
1436 3 43.2 40.0 8.0
1437 3 44.8 38.4 6.4
1438 3 46.4 40.0 8.0
1439 1 48.0 38.4 6.4
1440 2 49.6 40.0 8.0
1441 2 0.0 41.6 6.4
1442 3 1.6 43.2 8.0
1443 1 3.2 41.6 6.4
1444 3 4.8 43.2 8.0
1445 3 6.4 41.6 6.4
1446 2 8.0 43.2 8.0
1447 3 9.6 41.6 6.4
1448 1 11.2 43.2 8.0
1449 1 12.8 41.6 6.4
1450 3 14.4 43.2 8.0
1451 1 16.0 41.6 6.4
1452 2 17.6 43.2 8.0
1453 1 19.2 41.6 6.4
1454 1 20.8 43.2 8.0
1455 1 22.4 41.6 6.4
1456 3 24.0 43.2 8.0
1457 1 25.6 41.6 6.4
1458 3 27.2 43.2 8.0
1459 1 28.8 41.6 6.4
1460 1 30.4 43.2 8.0
1461 2 32.0 41.6 6.4
1462 1 33.6 43.2 8.0
1463 3 35.2 41.6 6.4
1464 3 36.8 43.2 8.0
1465 1 38.4 41.6 6.4
1466 3 40.0 43.2 8.0
1467 1 41.6 41.6 6.4
1468 3 43.2 43.2 8.0
1469 1 44.8 41.6 6.4
1470 2 46.4 43.2 8.0
1471 3 48.0 41.6 6.4
1472 3 49.6 43.2 8.0
1473 3 0.0 44.8 6.4
1474 1 1.6 46.4 8.0
1475 3 3.2 44.8 6.4
1476 3 4.8 46.4 8.0
1477 3 6.4 44.8 6.4
1478 1 8.0 46.4 8.0
1479 3 9.6 44.8 6.4
1480 2 11.2 46.4 8.0
1481 3 12.8 44.8 6.4
1482 3 14.4 46.4 8.0
1483 3 16.0 44.8 6.4
1484 1 17.6 46.4 8.0
1485 3 19.2 44.8 6.4
1486 2 20.8 46.4 8.0
1487 3 22.4 44.8 6.4
1488 1 24.0 46.4 8.0
1489 1 25.6 44.8 6.4
1490 3 27.2 46.4 8.0
1491 3 28.8 44.8 6.4
1492 1 30.4 46.4 8.0
1493 1 32.0 44.8 6.4
1494 2 33.6 46.4 8.0
1495 3 35.2 44.8 6.4
1496 3 36.8 46.4 8.0
1497 2 38.4 44.8 6.4
1498 2 40.0 46.4 8.0
1499 3 41.6 44.8 6.4
1500 1 43.2 46.4 8.0