ITEM: TIMESTEP
0
ITEM: NUMBER OF ATOMS
8192
ITEM: BOX BOUNDS pp pp pp
0.0000000000000000e+00 5.1200000000000003e+01
0.0000000000000000e+00 5.1200000000000003e+01
0.0000000000000000e+00 5.1200000000000003e+01
ITEM: ATOMS id type x y z c_eng
1 2 0 0 0 -9.87773
2 1 1.6 1.6 1.6 -11.8513
3 3 3.2 0 0 -11.4298
4 1 4.8 1.6 1.6 -11.8922
5 3 6.4 0 0 -11.5215
6 1 8 1.6 1.6 -11.945
7 3 9.6 0 0 -11.4789
8 3 11.2 1.6 1.6 -11.3909
9 1 12.8 0 0 -11.8769
10 3 14.4 1.6 1.6 -11.2683
11 1 16 0 0 -11.7151
12 1 17.6 1.6 1.6 -11.7098
13 3 19.2 0 0 -11.223
14 1 20.8 1.6 1.6 -11.8545
15 2 22.4 0 0 -9.9334
16 3 24 1.6 1.6 -11.4631
17 3 25.6 0 0 -11.2686
18 1 27.2 1.6 1.6 -11.7748
19 3 28.8 0 0 -11.206
20 1 30.4 1.6 1.6 -11.7372
21 3 32 0 0 -11.3153
22 1 33.6 1.6 1.6 -11.8574
23 3 35.2 0 0 -11.3902
24 3 36.8 1.6 1.6 -11.3907
25 1 38.4 0 0 -11.7322
26 3 40 1.6 1.6 -11.3842
27 1 41.6 0 0 -11.8356
28 3 43.2 1.6 1.6 -11.3046
29 2 44.8 0 0 -9.76293
30 2 46.4 1.6 1.6 -9.92729
31 1 48 0 0 -11.7988
32 3 49.6 1.6 1.6 -11.2961
33 1 0 3.2 0 -11.7846
34 2 1.6 4.8 1.6 -9.85857
35 3 3.2 3.2 0 -11.3134
36 2 4.8 4.8 1.6 -9.81262
37 3 6.4 3.2 0 -11.3584
38 1 8 4.8 1.6 -11.8665
39 3 9.6 3.2 0 -11.4852
40 1 11.2 4.8 1.6 -11.7465
41 1 12.8 3.2 0 -11.7979
42 2 14.4 4.8 1.6 -9.84842
43 3 16 3.2 0 -11.2846
44 1 17.6 4.8 1.6 -11.8553
45 3 19.2 3.2 0 -11.3406
46 1 20.8 4.8 1.6 -11.878
47 3 22.4 3.2 0 -11.461
48 3 24 4.8 1.6 -11.4024
49 3 25.6 3.2 0 -11.4766
50 3 27.2 4.8 1.6 -11.4015
51 3 28.8 3.2 0 -11.4149
52 3 30.4 4.8 1.6 -11.4019
53 3 32 3.2 0 -11.4154
54 3 33.6 4.8 1.6 -11.4014
55 3 35.2 3.2 0 -11.4837
56 3 36.8 4.8 1.6 -11.5568
57 1 38.4 3.2 0 -11.8679
58 3 40 4.8 1.6 -11.486
59 1 41.6 3.2 0 -11.8919
60 2 43.2 4.8 1.6 -9.8951
61 1 44.8 3.2 0 -11.8116
62 3 46.4 4.8 1.6 -11.2394
63 1 48 3.2 0 -11.8102
64 3 49.6 4.8 1.6 -11.402
65 3 0 6.4 0 -11.2874
66 1 1.6 8 1.6 -11.7748
67 3 3.2 6.4 0 -11.3658
68 1 4.8 8 1.6 -11.8673
69 3 6.4 6.4 0 -11.3083
70 1 8 8 1.6 -11.8929
71 3 9.6 6.4 0 -11.392
72 3 11.2 8 1.6 -11.3651
73 1 12.8 6.4 0 -11.8382
74 3 14.4 8 1.6 -11.3654
75 2 16 6.4 0 -9.96971
76 1 17.6 8 1.6 -11.9243
77 3 19.2 6.4 0 -11.3862
78 1 20.8 8 1.6 -11.8407
79 3 22.4 6.4 0 -11.3381
80 1 24 8 1.6 -11.8783
81 3 25.6 6.4 0 -11.4147
82 1 27.2 8 1.6 -11.878
83 3 28.8 6.4 0 -11.4147
84 1 30.4 8 1.6 -11.7956
85 3 32 6.4 0 -11.3259
86 1 33.6 8 1.6 -11.7951
87 3 35.2 6.4 0 -11.4899
88 1 36.8 8 1.6 -11.7836
89 3 38.4 6.4 0 -11.4473
90 1 40 8 1.6 -11.8189
91 3 41.6 6.4 0 -11.3664
92 1 43.2 8 1.6 -11.7956
93 1 44.8 6.4 0 -11.7536
94 3 46.4 8 1.6 -11.334
95 1 48 6.4 0 -11.761
96 2 49.6 8 1.6 -9.71852
97 3 0 9.6 0 -11.2027
98 1 1.6 11.2 1.6 -11.7657
99 3 3.2 9.6 0 -11.2423
100 1 4.8 11.2 1.6 -11.9025
101 3 6.4 9.6 0 -11.2426
102 1 8 11.2 1.6 -11.852
103 3 9.6 9.6 0 -11.4142
104 1 11.2 11.2 1.6 -11.8096
105 2 12.8 9.6 0 -9.87367
106 1 14.4 11.2 1.6 -11.792
107 3 16 9.6 0 -11.4831
108 3 17.6 11.2 1.6 -11.4143
109 3 19.2 9.6 0 -11.4309
110 1 20.8 11.2 1.6 -11.8465
111 3 22.4 9.6 0 -11.2033
112 1 24 11.2 1.6 -11.8535
113 3 25.6 9.6 0 -11.2417
114 1 27.2 11.2 1.6 -11.8675
115 3 28.8 9.6 0 -11.3381
116 1 30.4 11.2 1.6 -11.8778
117 3 32 9.6 0 -11.4153
118 1 33.6 11.2 1.6 -11.8773
119 3 35.2 9.6 0 -11.3838
120 1 36.8 11.2 1.6 -11.7857
121 2 38.4 9.6 0 -9.80863
122 3 40 11.2 1.6 -11.263
123 3 41.6 9.6 0 -11.2306
124 1 43.2 11.2 1.6 -11.7809
125 3 44.8 9.6 0 -11.2637
126 1 46.4 11.2 1.6 -11.7945
127 3 48 9.6 0 -11.2606
128 1 49.6 11.2 1.6 -11.7175
129 3 0 12.8 0 -11.2606
130 1 1.6 14.4 1.6 -11.7232
131 3 3.2 12.8 0 -11.3599
132 2 4.8 14.4 1.6 -9.87977
133 3 6.4 12.8 0 -11.1905
134 1 8 14.4 1.6 -11.6897
135 3 9.6 12.8 0 -11.2248
136 1 11.2 14.4 1.6 -11.8239
137 3 12.8 12.8 0 -11.3078
138 1 14.4 14.4 1.6 -11.7953
139 3 16 12.8 0 -11.4151
140 3 17.6 14.4 1.6 -11.2912
141 3 19.2 12.8 0 -11.4665
142 1 20.8 14.4 1.6 -11.8284
143 2 22.4 12.8 0 -9.90389
144 3 24 14.4 1.6 -11.4112
145 3 25.6 12.8 0 -11.355
146 2 27.2 14.4 1.6 -9.85586
147 3 28.8 12.8 0 -11.471
148 1 30.4 14.4 1.6 -11.9029
149 3 32 12.8 0 -11.4788
150 1 33.6 14.4 1.6 -11.8776
151 3 35.2 12.8 0 -11.3903
152 1 36.8 14.4 1.6 -11.8184
153 1 38.4 12.8 0 -11.747
154 3 40 14.4 1.6 -11.149
155 1 41.6 12.8 0 -11.6046
156 2 43.2 14.4 1.6 -9.81066
157 3 44.8 12.8 0 -11.2029
158 1 46.4 14.4 1.6 -11.8284
159 3 48 12.8 0 -11.3073
160 1 49.6 14.4 1.6 -11.8538
161 1 0 16 0 -11.7455
162 2 1.6 17.6 1.6 -9.87679
163 1 3.2 16 0 -11.7715
164 3 4.8 17.6 1.6 -11.3902
165 1 6.4 16 0 -11.6469
166 3 8 17.6 1.6 -11.3554
167 1 9.6 16 0 -11.6058
168 3 11.2 17.6 1.6 -11.3994
169 3 12.8 16 0 -11.2376
170 1 14.4 17.6 1.6 -11.811
171 3 16 16 0 -11.2373
172 1 17.6 17.6 1.6 -11.7314
173 3 19.2 16 0 -11.2991
174 1 20.8 17.6 1.6 -11.7684
175 1 22.4 16 0 -11.7247
176 3 24 17.6 1.6 -11.3823
177 1 25.6 16 0 -11.8503
178 3 27.2 17.6 1.6 -11.3546
179 3 28.8 16 0 -11.41
180 1 30.4 17.6 1.6 -11.8779
181 3 32 16 0 -11.3274
182 1 33.6 17.6 1.6 -11.8407
183 3 35.2 16 0 -11.3833
184 1 36.8 17.6 1.6 -11.8924
185 2 38.4 16 0 -9.81715
186 1 40 17.6 1.6 -11.7373
187 1 41.6 16 0 -11.5305
188 3 43.2 17.6 1.6 -11.1365
189 3 44.8 16 0 -11.1983
190 1 46.4 17.6 1.6 -11.849
191 3 48 16 0 -11.3827
192 3 49.6 17.6 1.6 -11.2891
193 1 0 19.2 0 -11.854
194 2 1.6 20.8 1.6 -9.85209
195 3 3.2 19.2 0 -11.3722
196 1 4.8 20.8 1.6 -11.7164
197 3 6.4 19.2 0 -11.3875
198 1 8 20.8 1.6 -11.7848
199 3 9.6 19.2 0 -11.4569
200 1 11.2 20.8 1.6 -11.9114
201 3 12.8 19.2 0 -11.4317
202 3 14.4 20.8 1.6 -11.3236
203 3 16 19.2 0 -11.2022
204 1 17.6 20.8 1.6 -11.7517
205 3 19.2 19.2 0 -11.2438
206 1 20.8 20.8 1.6 -11.8407
207 3 22.4 19.2 0 -11.2995
208 1 24 20.8 1.6 -11.8209
209 3 25.6 19.2 0 -11.4057
210 1 27.2 20.8 1.6 -11.8209
211 3 28.8 19.2 0 -11.3914
212 1 30.4 20.8 1.6 -11.8676
213 3 32 19.2 0 -11.2435
214 1 33.6 20.8 1.6 -11.8412
215 3 35.2 19.2 0 -11.2386
216 1 36.8 20.8 1.6 -11.8404
217 3 38.4 19.2 0 -11.3073
218 1 40 20.8 1.6 -11.878
219 3 41.6 19.2 0 -11.2381
220 1 43.2 20.8 1.6 -11.8776
221 3 44.8 19.2 0 -11.3035
222 1 46.4 20.8 1.6 -11.8218
223 2 48 19.2 0 -9.86405
224 2 49.6 20.8 1.6 -9.91927
225 2 0 22.4 0 -9.80062
226 3 1.6 24 1.6 -11.2758
227 1 3.2 22.4 0 -11.7305
228 3 4.8 24 1.6 -11.2993
229 3 6.4 22.4 0 -11.3537
230 1 8 24 1.6 -11.859
231 3 9.6 22.4 0 -11.3015
232 1 11.2 24 1.6 -11.9175
233 3 12.8 22.4 0 -11.3267
234 3 14.4 24 1.6 -11.4312
235 1 16 22.4 0 -11.6799
236 2 17.6 24 1.6 -9.83013
237 3 19.2 22.4 0 -11.2292
238 1 20.8 24 1.6 -11.7542
239 3 22.4 22.4 0 -11.3089
240 1 24 24 1.6 -11.812
241 3 25.6 22.4 0 -11.1655
242 1 27.2 24 1.6 -11.8377
243 3 28.8 22.4 0 -11.3656
244 2 30.4 24 1.6 -9.79151
245 3 32 22.4 0 -11.3307
246 1 33.6 24 1.6 -11.8269
247 3 35.2 22.4 0 -11.2975
248 1 36.8 24 1.6 -11.7511
249 3 38.4 22.4 0 -11.3459
250 3 40 24 1.6 -11.3005
251 3 41.6 22.4 0 -11.3066
252 1 43.2 24 1.6 -11.8646
253 3 44.8 22.4 0 -11.2381
254 3 46.4 24 1.6 -11.2543
255 1 48 22.4 0 -11.6617
256 3 49.6 24 1.6 -11.3122
257 1 0 25.6 0 -11.7993
259 1 3.2 25.6 0 -11.8527
261 3 6.4 25.6 0 -11.4686
263 2 9.6 25.6 0 -9.90415
265 3 12.8 25.6 0 -11.3708
267 3 16 25.6 0 -11.2704
269 1 19.2 25.6 0 -11.7497
271 3 22.4 25.6 0 -11.3338
273 3 25.6 25.6 0 -11.2039
275 3 28.8 25.6 0 -11.3332
277 1 32 25.6 0 -11.7669
279 2 35.2 25.6 0 -9.82992
281 1 38.4 25.6 0 -11.8544
283 2 41.6 25.6 0 -9.92573
285 3 44.8 25.6 0 -11.2672
287 1 48 25.6 0 -11.585
258 3 1.6 27.2 1.6 -11.3394
289 1 0 28.8 0 -11.8154
260 3 4.8 27.2 1.6 -11.3842
291 1 3.2 28.8 0 -11.8401
262 3 8 27.2 1.6 -11.3689
293 1 6.4 28.8 0 -11.8772
264 3 11.2 27.2 1.6 -11.3661
295 1 9.6 28.8 0 -11.8145
266 3 14.4 27.2 1.6 -11.4037
297 1 12.8 28.8 0 -11.7428
268 3 17.6 27.2 1.6 -11.27
299 1 16 28.8 0 -11.8295
270 2 20.8 27.2 1.6 -9.7875
301 1 19.2 28.8 0 -11.7381
272 1 24 27.2 1.6 -11.8673
303 3 22.4 28.8 0 -11.2689
305 3 25.6 28.8 0 -11.2426
274 1 27.2 27.2 1.6 -11.841
307 3 28.8 28.8 0 -11.3873
276 1 30.4 27.2 1.6 -11.7429
309 1 32 28.8 0 -11.764
278 3 33.6 27.2 1.6 -11.2577
311 1 35.2 28.8 0 -11.9027
280 3 36.8 27.2 1.6 -11.3595
313 3 38.4 28.8 0 -11.4769
282 3 40 27.2 1.6 -11.3892
315 3 41.6 28.8 0 -11.4642
284 1 43.2 27.2 1.6 -11.854
317 3 44.8 28.8 0 -11.2826
286 1 46.4 27.2 1.6 -11.7423
319 1 48 28.8 0 -11.5993
288 3 49.6 27.2 1.6 -11.269
290 3 1.6 30.4 1.6 -11.4027
321 3 0 32 0 -11.403
292 3 4.8 30.4 1.6 -11.2957
323 1 3.2 32 0 -11.893
294 3 8 30.4 1.6 -11.3073
325 1 6.4 32 0 -11.853
296 3 11.2 30.4 1.6 -11.2429
327 1 9.6 32 0 -11.8119
298 3 14.4 30.4 1.6 -11.2432
329 1 12.8 32 0 -11.8115
300 3 17.6 30.4 1.6 -11.1274
331 1 16 32 0 -11.763
302 1 20.8 30.4 1.6 -11.7345
333 3 19.2 32 0 -11.1831
304 1 24 30.4 1.6 -11.8775
335 3 22.4 32 0 -11.3409
337 3 25.6 32 0 -11.3157
306 1 27.2 30.4 1.6 -11.912
339 3 28.8 32 0 -11.433
308 3 30.4 30.4 1.6 -11.3589
341 1 32 32 0 -11.9127
310 3 33.6 30.4 1.6 -11.2743
343 1 35.2 32 0 -11.9025
312 3 36.8 30.4 1.6 -11.4568
345 3 38.4 32 0 -11.4848
314 1 40 30.4 1.6 -11.84
347 2 41.6 32 0 -9.94756
316 1 43.2 30.4 1.6 -11.8527
349 3 44.8 32 0 -11.4291
318 1 46.4 30.4 1.6 -11.7949
351 3 48 32 0 -11.3509
320 1 49.6 30.4 1.6 -11.8222
322 1 1.6 33.6 1.6 -11.804
353 3 0 35.2 0 -11.3027
324 2 4.8 33.6 1.6 -9.84273
355 3 3.2 35.2 0 -11.1684
326 3 8 33.6 1.6 -11.3068
357 1 6.4 35.2 0 -11.758
328 3 11.2 33.6 1.6 -11.2036
359 1 9.6 35.2 0 -11.8111
330 3 14.4 33.6 1.6 -11.3284
361 1 12.8 35.2 0 -11.8667
332 1 17.6 33.6 1.6 -11.643
363 3 16 35.2 0 -11.368
334 3 20.8 33.6 1.6 -11.3255
365 3 19.2 35.2 0 -11.3189
336 1 24 33.6 1.6 -11.8913
367 3 22.4 35.2 0 -11.3868
369 3 25.6 35.2 0 -11.3542
338 3 27.2 33.6 1.6 -11.4018
371 1 28.8 35.2 0 -11.8668
340 3 30.4 33.6 1.6 -11.4601
373 1 32 35.2 0 -11.811
342 3 33.6 33.6 1.6 -11.3089
375 1 35.2 35.2 0 -11.8767
344 3 36.8 33.6 1.6 -11.438
377 3 38.4 35.2 0 -11.5811
346 1 40 33.6 1.6 -11.9224
379 3 41.6 35.2 0 -11.4611
348 1 43.2 33.6 1.6 -11.8531
381 3 44.8 35.2 0 -11.3911
350 1 46.4 33.6 1.6 -11.8675
383 3 48 35.2 0 -11.3081
352 1 49.6 33.6 1.6 -11.81
354 1 1.6 36.8 1.6 -11.7649
385 3 0 38.4 0 -11.3384
356 1 4.8 36.8 1.6 -11.618
387 3 3.2 38.4 0 -11.3843
358 3 8 36.8 1.6 -11.3003
389 2 6.4 38.4 0 -9.86611
360 3 11.2 36.8 1.6 -11.3032
391 1 9.6 38.4 0 -11.9055
362 3 14.4 36.8 1.6 -11.3265
393 3 12.8 38.4 0 -11.3785
364 2 17.6 36.8 1.6 -9.90665
395 3 16 38.4 0 -11.3266
366 3 20.8 36.8 1.6 -11.4506
397 2 19.2 38.4 0 -9.86143
368 1 24 36.8 1.6 -11.8806
399 3 22.4 38.4 0 -11.3874
401 3 25.6 38.4 0 -11.2759
370 1 27.2 36.8 1.6 -11.8928
403 3 28.8 38.4 0 -11.2271
372 2 30.4 36.8 1.6 -9.83411
405 1 32 38.4 0 -11.8534
374 3 33.6 36.8 1.6 -11.3027
407 1 35.2 38.4 0 -11.8439
376 3 36.8 36.8 1.6 -11.4613
409 3 38.4 38.4 0 -11.3706
378 1 40 36.8 1.6 -11.9114
411 3 41.6 38.4 0 -11.387
380 1 43.2 36.8 1.6 -11.8411
413 3 44.8 38.4 0 -11.2429
382 1 46.4 36.8 1.6 -11.8412
415 3 48 38.4 0 -11.2414
384 1 49.6 36.8 1.6 -11.8542
386 1 1.6 40 1.6 -11.9066
417 3 0 41.6 0 -11.3392
388 1 4.8 40 1.6 -11.8919
419 3 3.2 41.6 0 -11.3271
390 3 8 40 1.6 -11.4586
421 3 6.4 41.6 0 -11.4033
392 3 11.2 40 1.6 -11.3276
423 1 9.6 41.6 0 -11.9502
394 1 14.4 40 1.6 -11.6177
425 3 12.8 41.6 0 -11.2535
396 3 17.6 40 1.6 -11.3108
427 2 16 41.6 0 -9.83537
398 3 20.8 40 1.6 -11.3924
429 3 19.2 41.6 0 -11.4208
400 1 24 40 1.6 -11.8924
431 3 22.4 41.6 0 -11.3762
433 3 25.6 41.6 0 -11.2895
402 1 27.2 40 1.6 -11.8421
435 1 28.8 41.6 0 -11.6992
404 3 30.4 40 1.6 -11.36
437 1 32 41.6 0 -11.8429
406 3 33.6 40 1.6 -11.4031
439 1 35.2 41.6 0 -11.8467
408 1 36.8 40 1.6 -11.7668
441 1 38.4 41.6 0 -11.8273
410 1 40 40 1.6 -11.8426
443 3 41.6 41.6 0 -11.4333
412 1 43.2 40 1.6 -11.7951
445 3 44.8 41.6 0 -11.3603
414 1 46.4 40 1.6 -11.7958
447 3 48 41.6 0 -11.387
416 1 49.6 40 1.6 -11.8405
418 1 1.6 43.2 1.6 -11.8408
449 3 0 44.8 0 -11.3066
420 1 4.8 43.2 1.6 -11.8194
451 3 3.2 44.8 0 -11.2696
422 3 8 43.2 1.6 -11.3863
453 2 6.4 44.8 0 -9.9416
424 3 11.2 43.2 1.6 -11.2388
455 1 9.6 44.8 0 -11.8762
426 1 14.4 43.2 1.6 -11.6298
457 1 12.8 44.8 0 -11.6673
428 3 17.6 43.2 1.6 -11.2493
459 3 16 44.8 0 -11.2649
430 3 20.8 43.2 1.6 -11.4583
461 3 19.2 44.8 0 -11.3968
432 3 24 43.2 1.6 -11.3688
463 1 22.4 44.8 0 -11.8023
465 1 25.6 44.8 0 -11.764
434 3 27.2 43.2 1.6 -11.2743
467 1 28.8 44.8 0 -11.7951
436 1 30.4 43.2 1.6 -11.6984
469 3 32 44.8 0 -11.4292
438 3 33.6 43.2 1.6 -11.4539
471 3 35.2 44.8 0 -11.3612
440 3 36.8 43.2 1.6 -11.3752
473 1 38.4 44.8 0 -11.6486
442 3 40 43.2 1.6 -11.3752
475 1 41.6 44.8 0 -11.8603
444 3 43.2 43.2 1.6 -11.3913
477 1 44.8 44.8 0 -11.9012
446 3 46.4 43.2 1.6 -11.4116
479 2 48 44.8 0 -9.99707
448 1 49.6 43.2 1.6 -11.8527
450 1 1.6 46.4 1.6 -11.8776
481 3 0 48 0 -11.3829
452 3 4.8 46.4 1.6 -11.2968
483 3 3.2 48 0 -11.4134
454 3 8 46.4 1.6 -11.468
485 3 6.4 48 0 -11.4876
456 3 11.2 46.4 1.6 -11.1663
487 1 9.6 48 0 -11.8791
458 2 14.4 46.4 1.6 -9.7999
489 1 12.8 48 0 -11.783
460 1 17.6 46.4 1.6 -11.899
491 3 16 48 0 -11.3773
462 3 20.8 46.4 1.6 -11.3831
493 3 19.2 48 0 -11.4579
464 3 24 46.4 1.6 -11.3102
495 1 22.4 48 0 -11.7583
497 1 25.6 48 0 -11.7588
466 3 27.2 46.4 1.6 -11.3865
499 3 28.8 48 0 -11.3908
468 3 30.4 46.4 1.6 -11.3083
501 3 32 48 0 -11.508
470 1 33.6 46.4 1.6 -11.7969
503 1 35.2 48 0 -11.6791
472 1 36.8 46.4 1.6 -11.6338
505 1 38.4 48 0 -11.544
474 1 40 46.4 1.6 -11.7127
507 2 41.6 48 0 -9.84212
476 3 43.2 46.4 1.6 -11.2544
509 1 44.8 48 0 -11.7568
478 3 46.4 46.4 1.6 -11.3436
511 3 48 48 0 -11.389
480 1 49.6 46.4 1.6 -11.9096
482 1 1.6 49.6 1.6 -11.8526
484 1 4.8 49.6 1.6 -11.9457
486 3 8 49.6 1.6 -11.4328
488 3 11.2 49.6 1.6 -11.3159
490 3 14.4 49.6 1.6 -11.3888
492 3 17.6 49.6 1.6 -11.3492
494 2 20.8 49.6 1.6 -9.95425
496 3 24 49.6 1.6 -11.311
498 1 27.2 49.6 1.6 -11.7537
500 1 30.4 49.6 1.6 -11.7624
502 3 33.6 49.6 1.6 -11.3786
504 3 36.8 49.6 1.6 -11.3383
506 2 40 49.6 1.6 -9.87362
508 1 43.2 49.6 1.6 -11.718
510 1 46.4 49.6 1.6 -11.6867
512 1 49.6 49.6 1.6 -11.7898
513 3 0 0 3.2 -11.3078
514 1 1.6 1.6 4.8 -11.8407
515 3 3.2 0 3.2 -11.2417
516 1 4.8 1.6 4.8 -11.8534
517 3 6.4 0 3.2 -11.3394
518 1 8 1.6 4.8 -11.824
519 3 9.6 0 3.2 -11.3558
520 3 11.2 1.6 4.8 -11.3298
521 1 12.8 0 3.2 -11.8425
522 3 14.4 1.6 4.8 -11.4049
523 1 16 0 3.2 -11.7705
524 1 17.6 1.6 4.8 -11.7675
525 2 19.2 0 3.2 -9.90598
526 1 20.8 1.6 4.8 -11.8771
527 3 22.4 0 3.2 -11.4204
528 2 24 1.6 4.8 -9.87769
529 1 25.6 0 3.2 -11.7722
530 3 27.2 1.6 4.8 -11.2357
531 2 28.8 0 3.2 -9.67327
532 1 30.4 1.6 4.8 -11.5763
533 1 32 0 3.2 -11.4726
534 1 33.6 1.6 4.8 -11.6773
535 3 35.2 0 3.2 -11.4901
536 3 36.8 1.6 4.8 -11.3329
537 1 38.4 0 3.2 -11.9277
538 3 40 1.6 4.8 -11.3982
539 3 41.6 0 3.2 -11.4691
540 1 43.2 1.6 4.8 -11.879
541 3 44.8 0 3.2 -11.4073
542 3 46.4 1.6 4.8 -11.3291
543 3 48 0 3.2 -11.3898
544 1 49.6 1.6 4.8 -11.8659
545 3 0 3.2 3.2 -11.3432
546 1 1.6 4.8 4.8 -11.885
547 3 3.2 3.2 3.2 -11.3656
548 1 4.8 4.8 4.8 -11.8678
549 3 6.4 3.2 3.2 -11.2702
550 1 8 4.8 4.8 -11.8466
551 3 9.6 3.2 3.2 -11.3276
552 1 11.2 4.8 4.8 -11.8293
553 1 12.8 3.2 3.2 -11.7251
554 1 14.4 4.8 4.8 -11.8029
555 2 16 3.2 3.2 -9.81457
556 1 17.6 4.8 4.8 -11.8118
557 3 19.2 3.2 3.2 -11.1645
558 1 20.8 4.8 4.8 -11.8408
559 3 22.4 3.2 3.2 -11.3855
560 1 24 4.8 4.8 -11.8295
561 1 25.6 3.2 3.2 -11.778
562 1 27.2 4.8 4.8 -11.8764
563 3 28.8 3.2 3.2 -11.3808
564 1 30.4 4.8 4.8 -11.7942
565 3 32 3.2 3.2 -11.2141
566 1 33.6 4.8 4.8 -11.8074
567 3 35.2 3.2 3.2 -11.491
568 2 36.8 4.8 4.8 -9.92934
569 1 38.4 3.2 3.2 -11.9047
570 2 40 4.8 4.8 -9.9771
571 3 41.6 3.2 3.2 -11.3925
572 1 43.2 4.8 4.8 -11.7995
573 1 44.8 3.2 3.2 -11.7617
574 1 46.4 4.8 4.8 -11.8014
575 2 48 3.2 3.2 -9.87335
576 2 49.6 4.8 4.8 -9.82911
577 2 0 6.4 3.2 -9.81678
578 1 1.6 8 4.8 -11.7847
579 3 3.2 6.4 3.2 -11.331
580 1 4.8 8 4.8 -11.8921
581 3 6.4 6.4 3.2 -11.3981
582 3 8 8 4.8 -11.3656
583 3 9.6 6.4 3.2 -11.4654
584 3 11.2 8 4.8 -11.403
585 3 12.8 6.4 3.2 -11.2676
586 1 14.4 8 4.8 -11.7902
587 3 16 6.4 3.2 -11.3277
588 1 17.6 8 4.8 -11.8405
589 3 19.2 6.4 3.2 -11.2423
590 1 20.8 8 4.8 -11.8539
591 3 22.4 6.4 3.2 -11.3389
592 1 24 8 4.8 -11.8404
593 3 25.6 6.4 3.2 -11.3259
594 1 27.2 8 4.8 -11.878
595 3 28.8 6.4 3.2 -11.3148
596 1 30.4 8 4.8 -11.7436
597 1 32 6.4 3.2 -11.6063
598 1 33.6 8 4.8 -11.7894
599 3 35.2 6.4 3.2 -11.414
600 3 36.8 8 4.8 -11.4124
601 3 38.4 6.4 3.2 -11.3932
602 3 40 8 4.8 -11.4111
603 3 41.6 6.4 3.2 -11.4867
604 1 43.2 8 4.8 -11.8915
605 3 44.8 6.4 3.2 -11.2718
606 3 46.4 8 4.8 -11.2543
607 1 48 6.4 3.2 -11.7666
608 1 49.6 8 4.8 -11.7033
609 1 0 9.6 3.2 -11.5789
610 3 1.6 11.2 4.8 -11.3474
611 3 3.2 9.6 3.2 -11.3155
612 3 4.8 11.2 4.8 -11.4957
613 3 6.4 9.6 3.2 -11.4355
614 3 8 11.2 4.8 -11.4713
615 2 9.6 9.6 3.2 -9.93008
616 2 11.2 11.2 4.8 -9.85521
617 1 12.8 9.6 3.2 -11.6492
618 1 14.4 11.2 4.8 -11.6969
619 3 16 9.6 3.2 -11.3819
620 2 17.6 11.2 4.8 -9.865
621 3 19.2 9.6 3.2 -11.3572
622 1 20.8 11.2 4.8 -11.8033
623 3 22.4 9.6 3.2 -11.242
624 1 24 11.2 4.8 -11.9126
625 3 25.6 9.6 3.2 -11.2414
626 1 27.2 11.2 4.8 -11.8403
627 3 28.8 9.6 3.2 -11.2423
628 1 30.4 11.2 4.8 -11.8411
629 3 32 9.6 3.2 -11.1223
630 1 33.6 11.2 4.8 -11.9122
631 3 35.2 9.6 3.2 -11.3275
632 3 36.8 11.2 4.8 -11.378
633 1 38.4 9.6 3.2 -11.7731
634 3 40 11.2 4.8 -11.4062
635 2 41.6 9.6 3.2 -9.88213
636 1 43.2 11.2 4.8 -11.7947
637 3 44.8 9.6 3.2 -11.2911
638 1 46.4 11.2 4.8 -11.8768
639 1 48 9.6 3.2 -11.6601
640 3 49.6 11.2 4.8 -11.3381
641 2 0 12.8 3.2 -9.83449
642 1 1.6 14.4 4.8 -11.8238
643 3 3.2 12.8 3.2 -11.4256
644 3 4.8 14.4 4.8 -11.4511
645 3 6.4 12.8 3.2 -11.4389
646 3 8 14.4 4.8 -11.4773
647 3 9.6 12.8 3.2 -11.4292
648 3 11.2 14.4 4.8 -11.4386
649 3 12.8 12.8 3.2 -11.2556
650 1 14.4 14.4 4.8 -11.7127
651 3 16 12.8 3.2 -11.3338
652 1 17.6 14.4 4.8 -11.6919
653 3 19.2 12.8 3.2 -11.331
654 1 20.8 14.4 4.8 -11.7463
655 3 22.4 12.8 3.2 -11.384
656 3 24 14.4 4.8 -11.4361
657 3 25.6 12.8 3.2 -11.3855
658 1 27.2 14.4 4.8 -11.8255
659 3 28.8 12.8 3.2 -11.3083
660 1 30.4 14.4 4.8 -11.8775
661 3 32 12.8 3.2 -11.2414
662 1 33.6 14.4 4.8 -11.8767
663 3 35.2 12.8 3.2 -11.3404
664 1 36.8 14.4 4.8 -11.8305
665 3 38.4 12.8 3.2 -11.3165
666 2 40 14.4 4.8 -9.79368
667 2 41.6 12.8 3.2 -9.87702
668 3 43.2 14.4 4.8 -11.2018
669 3 44.8 12.8 3.2 -11.3555
670 3 46.4 14.4 4.8 -11.4316
671 3 48 12.8 3.2 -11.3635
672 3 49.6 14.4 4.8 -11.3799
673 3 0 16 3.2 -11.2562
674 1 1.6 17.6 4.8 -11.7343
675 3 3.2 16 3.2 -11.4169
676 3 4.8 17.6 4.8 -11.4133
677 1 6.4 16 3.2 -11.8488
678 3 8 17.6 4.8 -11.395
679 3 9.6 16 3.2 -11.5005
680 3 11.2 17.6 4.8 -11.5008
681 3 12.8 16 3.2 -11.3563
682 2 14.4 17.6 4.8 -9.78121
683 1 16 16 3.2 -11.5393
684 1 17.6 17.6 4.8 -11.6773
685 2 19.2 16 3.2 -9.75621
686 1 20.8 17.6 4.8 -11.8611
687 3 22.4 16 3.2 -11.3313
688 2 24 17.6 4.8 -9.90773
689 1 25.6 16 3.2 -11.7937
690 1 27.2 17.6 4.8 -11.7713
691 3 28.8 16 3.2 -11.2991
692 1 30.4 17.6 4.8 -11.8775
693 3 32 16 3.2 -11.2414
694 1 33.6 17.6 4.8 -11.9028
695 3 35.2 16 3.2 -11.3392
696 3 36.8 17.6 4.8 -11.3179
697 3 38.4 16 3.2 -11.2562
698 1 40 17.6 4.8 -11.64
699 1 41.6 16 3.2 -11.651
700 1 43.2 17.6 4.8 -11.6287
701 1 44.8 16 3.2 -11.7432
702 3 46.4 17.6 4.8 -11.3196
703 3 48 16 3.2 -11.4817
704 1 49.6 17.6 4.8 -11.7888
705 1 0 19.2 3.2 -11.7189
706 3 1.6 20.8 4.8 -11.2031
707 3 3.2 19.2 3.2 -11.2983
708 3 4.8 20.8 4.8 -11.2562
709 1 6.4 19.2 3.2 -11.7462
710 1 8 20.8 4.8 -11.6834
711 3 9.6 19.2 3.2 -11.3736
712 1 11.2 20.8 4.8 -11.7675
713 3 12.8 19.2 3.2 -11.49
714 3 14.4 20.8 4.8 -11.3136
715 2 16 19.2 3.2 -9.77528
716 2 17.6 20.8 4.8 -9.84426
717 3 19.2 19.2 3.2 -11.2371
718 1 20.8 20.8 4.8 -11.8408
719 3 22.4 19.2 3.2 -11.3622
720 1 24 20.8 4.8 -11.7776
721 2 25.6 19.2 3.2 -9.85902
722 1 27.2 20.8 4.8 -11.7053
723 3 28.8 19.2 3.2 -11.3073
724 1 30.4 20.8 4.8 -11.7798
725 3 32 19.2 3.2 -11.2414
726 1 33.6 20.8 4.8 -11.8112
727 3 35.2 19.2 3.2 -11.3384
728 1 36.8 20.8 4.8 -11.8467
729 3 38.4 19.2 3.2 -11.3402
730 1 40 20.8 4.8 -11.8461
731 3 41.6 19.2 3.2 -11.1984
732 1 43.2 20.8 4.8 -11.8444
733 3 44.8 19.2 3.2 -11.3834
734 3 46.4 20.8 4.8 -11.4447
735 3 48 19.2 3.2 -11.4915
736 3 49.6 20.8 4.8 -11.3405
737 1 0 22.4 3.2 -11.8287
738 3 1.6 24 4.8 -11.1655
739 1 3.2 22.4 3.2 -11.7759
740 2 4.8 24 4.8 -9.90161
741 2 6.4 22.4 3.2 -9.80969
742 1 8 24 4.8 -11.8507
743 3 9.6 22.4 3.2 -11.3037
744 3 11.2 24 4.8 -11.4334
745 3 12.8 22.4 3.2 -11.4615
746 3 14.4 24 4.8 -11.3803
747 1 16 22.4 3.2 -11.8029
748 3 17.6 24 4.8 -11.2307
749 3 19.2 22.4 3.2 -11.2253
750 1 20.8 24 4.8 -11.7468
751 3 22.4 22.4 3.2 -11.2054
752 1 24 24 4.8 -11.7843
753 2 25.6 22.4 3.2 -9.677
754 1 27.2 24 4.8 -11.7197
755 3 28.8 22.4 3.2 -11.1493
756 1 30.4 24 4.8 -11.8208
757 3 32 22.4 3.2 -11.3097
758 1 33.6 24 4.8 -11.8608
759 3 35.2 22.4 3.2 -11.1648
760 1 36.8 24 4.8 -11.7525
761 3 38.4 22.4 3.2 -11.3278
762 3 40 24 4.8 -11.315
763 3 41.6 22.4 3.2 -11.3874
764 1 43.2 24 4.8 -11.7895
765 3 44.8 22.4 3.2 -11.4004
766 1 46.4 24 4.8 -11.8803
767 3 48 22.4 3.2 -11.3957
768 2 49.6 24 4.8 -9.90371
769 1 0 25.6 3.2 -11.8863
771 1 3.2 25.6 3.2 -11.8273
773 3 6.4 25.6 3.2 -11.3544
775 3 9.6 25.6 3.2 -11.4494
777 3 12.8 25.6 3.2 -11.4789
779 1 16 25.6 3.2 -11.8866
781 1 19.2 25.6 3.2 -11.7095
783 3 22.4 25.6 3.2 -11.2648
785 3 25.6 25.6 3.2 -11.2039
787 3 28.8 25.6 3.2 -11.3102
789 3 32 25.6 3.2 -11.2554
791 2 35.2 25.6 3.2 -9.85486
793 1 38.4 25.6 3.2 -11.735
795 2 41.6 25.6 3.2 -9.84381
797 3 44.8 25.6 3.2 -11.3032
799 3 48 25.6 3.2 -11.4415
770 3 1.6 27.2 4.8 -11.3027
801 3 0 28.8 3.2 -11.3847
772 2 4.8 27.2 4.8 -9.75865
803 1 3.2 28.8 3.2 -11.7861
774 1 8 27.2 4.8 -11.678
805 1 6.4 28.8 3.2 -11.7348
776 3 11.2 27.2 4.8 -11.364
807 1 9.6 28.8 3.2 -11.7566
778 3 14.4 27.2 4.8 -11.402
809 1 12.8 28.8 3.2 -11.9032
780 3 17.6 27.2 4.8 -11.2435
811 1 16 28.8 3.2 -11.8405
782 3 20.8 27.2 4.8 -11.2751
813 1 19.2 28.8 3.2 -11.737
784 1 24 27.2 4.8 -11.9069
815 3 22.4 28.8 3.2 -11.4066
817 3 25.6 28.8 3.2 -11.3387
786 1 27.2 27.2 4.8 -11.8772
819 3 28.8 28.8 3.2 -11.2999
788 1 30.4 27.2 4.8 -11.7414
821 1 32 28.8 3.2 -11.7044
790 3 33.6 27.2 4.8 -11.3326
823 1 35.2 28.8 3.2 -11.8674
792 3 36.8 27.2 4.8 -11.2606
825 1 38.4 28.8 3.2 -11.7748
794 2 40 27.2 4.8 -9.7888
827 3 41.6 28.8 3.2 -11.2292
796 1 43.2 27.2 4.8 -11.7719
829 3 44.8 28.8 3.2 -11.2429
798 1 46.4 27.2 4.8 -11.8764
831 3 48 28.8 3.2 -11.3706
800 3 49.6 27.2 4.8 -11.4848
802 3 1.6 30.4 4.8 -11.3664
833 3 0 32 3.2 -11.4282
804 1 4.8 30.4 4.8 -11.6362
835 3 3.2 32 3.2 -11.3244
806 2 8 30.4 4.8 -9.85075
837 3 6.4 32 3.2 -11.3668
808 3 11.2 30.4 4.8 -11.3401
839 1 9.6 32 3.2 -11.8938
810 3 14.4 30.4 4.8 -11.4022
841 1 12.8 32 3.2 -11.8405
812 3 17.6 30.4 4.8 -11.1604
843 1 16 32 3.2 -11.7433
814 2 20.8 30.4 4.8 -9.87691
845 1 19.2 32 3.2 -11.6155
816 3 24 30.4 4.8 -11.3348
847 3 22.4 32 3.2 -11.3421
849 3 25.6 32 3.2 -11.3947
818 1 27.2 30.4 4.8 -11.9183
851 3 28.8 32 3.2 -11.5216
820 2 30.4 30.4 4.8 -9.82512
853 1 32 32 3.2 -11.8508
822 2 33.6 30.4 4.8 -9.77333
855 2 35.2 32 3.2 -9.80778
824 3 36.8 30.4 4.8 -11.1509
857 3 38.4 32 3.2 -11.3663
826 1 40 30.4 4.8 -11.73
859 3 41.6 32 3.2 -11.303
828 1 43.2 30.4 4.8 -11.8527
861 3 44.8 32 3.2 -11.242
830 1 46.4 30.4 4.8 -11.8408
863 3 48 32 3.2 -11.2751
832 2 49.6 30.4 4.8 -9.9024
834 3 1.6 33.6 4.8 -11.2894
865 2 0 35.2 3.2 -9.83432
836 3 4.8 33.6 4.8 -11.1559
867 1 3.2 35.2 3.2 -11.6306
838 3 8 33.6 4.8 -11.3765
869 1 6.4 35.2 3.2 -11.6991
840 3 11.2 33.6 4.8 -11.3027
871 1 9.6 35.2 3.2 -11.8111
842 3 14.4 33.6 4.8 -11.3824
873 1 12.8 35.2 3.2 -11.8206
844 1 17.6 33.6 4.8 -11.6563
875 3 16 35.2 3.2 -11.2722
846 3 20.8 33.6 4.8 -11.2537
877 1 19.2 35.2 3.2 -11.7607
848 1 24 33.6 4.8 -11.7237
879 2 22.4 35.2 3.2 -9.92438
881 3 25.6 35.2 3.2 -11.4448
850 1 27.2 33.6 4.8 -11.9115
883 3 28.8 35.2 3.2 -11.4478
852 3 30.4 33.6 4.8 -11.3459
885 1 32 35.2 3.2 -11.8127
854 3 33.6 33.6 4.8 -11.2594
887 1 35.2 35.2 3.2 -11.8607
856 1 36.8 33.6 4.8 -11.6348
889 3 38.4 35.2 3.2 -11.4038
858 3 40 33.6 4.8 -11.2538
891 3 41.6 35.2 3.2 -11.3392
860 1 43.2 33.6 4.8 -11.9122
893 3 44.8 35.2 3.2 -11.2414
862 1 46.4 33.6 4.8 -11.8527
895 3 48 35.2 3.2 -11.3066
864 1 49.6 33.6 4.8 -11.7879
866 3 1.6 36.8 4.8 -11.3998
897 3 0 38.4 3.2 -11.4379
868 1 4.8 36.8 4.8 -11.673
899 3 3.2 38.4 3.2 -11.2922
870 3 8 36.8 4.8 -11.3129
901 3 6.4 38.4 3.2 -11.3595
872 2 11.2 36.8 4.8 -9.77293
903 1 9.6 38.4 3.2 -11.8746
874 2 14.4 36.8 4.8 -9.86799
905 1 12.8 38.4 3.2 -11.6968
876 2 17.6 36.8 4.8 -9.88777
907 1 16 38.4 3.2 -11.7539
878 3 20.8 36.8 4.8 -11.4622
909 1 19.2 38.4 3.2 -11.8104
880 2 24 36.8 4.8 -9.85238
911 3 22.4 38.4 3.2 -11.3973
913 3 25.6 38.4 3.2 -11.2997
882 3 27.2 36.8 4.8 -11.2809
915 3 28.8 38.4 3.2 -11.3793
884 1 30.4 36.8 4.8 -11.7254
917 1 32 38.4 3.2 -11.8241
886 3 33.6 36.8 4.8 -11.4046
919 3 35.2 38.4 3.2 -11.4333
888 3 36.8 36.8 4.8 -11.3687
921 3 38.4 38.4 3.2 -11.4166
890 1 40 36.8 4.8 -11.8891
923 3 41.6 38.4 3.2 -11.2432
892 1 43.2 36.8 4.8 -11.8769
925 3 44.8 38.4 3.2 -11.1232
894 1 46.4 36.8 4.8 -11.9122
927 3 48 38.4 3.2 -11.3394
896 3 49.6 36.8 4.8 -11.3837
898 2 1.6 40 4.8 -9.87138
929 3 0 41.6 3.2 -11.3086
900 1 4.8 40 4.8 -11.859
931 3 3.2 41.6 3.2 -11.2013
902 3 8 40 4.8 -11.5669
933 3 6.4 41.6 3.2 -11.3914
904 3 11.2 40 4.8 -11.2878
935 1 9.6 41.6 3.2 -11.9116
906 2 14.4 40 4.8 -9.76281
937 1 12.8 41.6 3.2 -11.6645
908 3 17.6 40 4.8 -11.1973
939 1 16 41.6 3.2 -11.6646
910 1 20.8 40 4.8 -11.7987
941 1 19.2 41.6 3.2 -11.7836
912 1 24 40 4.8 -11.6602
943 2 22.4 41.6 3.2 -9.91754
945 3 25.6 41.6 3.2 -11.3598
914 1 27.2 40 4.8 -11.6446
947 3 28.8 41.6 3.2 -11.3739
916 3 30.4 40 4.8 -11.2988
949 3 32 41.6 3.2 -11.401
918 3 33.6 40 4.8 -11.5379
951 3 35.2 41.6 3.2 -11.5346
920 1 36.8 40 4.8 -11.9107
953 3 38.4 41.6 3.2 -11.3277
922 1 40 40 4.8 -11.7793
955 3 41.6 41.6 3.2 -11.1937
924 1 43.2 40 4.8 -11.589
957 1 44.8 41.6 3.2 -11.5508
926 1 46.4 40 4.8 -11.6996
959 3 48 41.6 3.2 -11.2625
928 1 49.6 40 4.8 -11.9091
930 1 1.6 43.2 4.8 -11.8154
961 3 0 44.8 3.2 -11.3387
932 1 4.8 43.2 4.8 -11.664
963 3 3.2 44.8 3.2 -11.2385
934 3 8 43.2 4.8 -11.3898
965 1 6.4 44.8 3.2 -11.7372
936 3 11.2 43.2 4.8 -11.416
967 1 9.6 44.8 3.2 -11.8772
938 3 14.4 43.2 4.8 -11.2735
969 1 12.8 44.8 3.2 -11.7651
940 1 17.6 43.2 4.8 -11.7893
971 3 16 44.8 3.2 -11.2772
942 3 20.8 43.2 4.8 -11.2468
973 1 19.2 44.8 3.2 -11.7681
944 3 24 43.2 4.8 -11.3644
975 1 22.4 44.8 3.2 -11.866
977 1 25.6 44.8 3.2 -11.906
946 3 27.2 43.2 4.8 -11.3282
979 1 28.8 44.8 3.2 -11.8083
948 3 30.4 43.2 4.8 -11.2884
981 1 32 44.8 3.2 -11.7161
950 3 33.6 43.2 4.8 -11.4553
983 3 35.2 44.8 3.2 -11.4041
952 1 36.8 43.2 4.8 -11.9116
985 3 38.4 44.8 3.2 -11.3283
954 1 40 43.2 4.8 -11.7038
987 3 41.6 44.8 3.2 -11.2688
956 1 43.2 43.2 4.8 -11.4505
989 1 44.8 44.8 3.2 -11.7673
958 2 46.4 43.2 4.8 -9.77648
991 3 48 44.8 3.2 -11.4644
960 1 49.6 43.2 4.8 -11.8743
962 1 1.6 46.4 4.8 -11.8778
993 3 0 48 3.2 -11.3058
964 1 4.8 46.4 4.8 -11.7902
995 3 3.2 48 3.2 -11.3389
966 3 8 46.4 4.8 -11.3682
997 3 6.4 48 3.2 -11.4031
968 3 11.2 46.4 4.8 -11.254
999 1 9.6 48 3.2 -11.7847
970 3 14.4 46.4 4.8 -11.4515
1001 1 12.8 48 3.2 -11.749
972 1 17.6 46.4 4.8 -11.8477
1003 3 16 48 3.2 -11.4784
974 3 20.8 46.4 4.8 -11.321
1005 3 19.2 48 3.2 -11.4456
976 3 24 46.4 4.8 -11.271
1007 1 22.4 48 3.2 -11.9189
1009 2 25.6 48 3.2 -9.81585
978 3 27.2 46.4 4.8 -11.3594
1011 3 28.8 48 3.2 -11.3468
980 2 30.4 46.4 4.8 -9.72193
1013 2 32 48 3.2 -9.80111
982 1 33.6 46.4 4.8 -11.7009
1015 3 35.2 48 3.2 -11.4152
984 1 36.8 46.4 4.8 -11.9113
1017 3 38.4 48 3.2 -11.3662
986 1 40 46.4 4.8 -11.8423
1019 3 41.6 48 3.2 -11.4718
988 2 43.2 46.4 4.8 -9.80729
1021 1 44.8 48 3.2 -11.7753
990 3 46.4 46.4 4.8 -11.458
1023 2 48 48 3.2 -9.95102
992 3 49.6 46.4 4.8 -11.3487
994 1 1.6 49.6 4.8 -11.8408
996 1 4.8 49.6 4.8 -11.8769
998 1 8 49.6 4.8 -11.7818
1000 1 11.2 49.6 4.8 -11.6494
1002 3 14.4 49.6 4.8 -11.3544
1004 2 17.6 49.6 4.8 -9.93825
1006 3 20.8 49.6 4.8 -11.4908
1008 3 24 49.6 4.8 -11.4439
1010 3 27.2 49.6 4.8 -11.2601
1012 1 30.4 49.6 4.8 -11.4871
1014 2 33.6 49.6 4.8 -9.73056
1016 3 36.8 49.6 4.8 -11.4829
1018 3 40 49.6 4.8 -11.4651
1020 3 43.2 49.6 4.8 -11.4354
1022 3 46.4 49.6 4.8 -11.4625
1024 1 49.6 49.6 4.8 -11.8931
1025 3 0 0 6.4 -11.1643
1026 2 1.6 1.6 8 -9.78467
1027 3 3.2 0 6.4 -11.3862
1028 3 4.8 1.6 8 -11.3538
1029 3 6.4 0 6.4 -11.3158
1030 1 8 1.6 8 -11.7605
1031 2 9.6 0 6.4 -9.80292
1032 1 11.2 1.6 8 -11.8515
1033 3 12.8 0 6.4 -11.2899
1034 2 14.4 1.6 8 -9.82737
1035 3 16 0 6.4 -11.4324
1036 1 17.6 1.6 8 -11.8674
1037 3 19.2 0 6.4 -11.4133
1038 1 20.8 1.6 8 -11.841
1039 3 22.4 0 6.4 -11.3871
1040 1 24 1.6 8 -11.8112
1041 1 25.6 0 6.4 -11.8187
1042 3 27.2 1.6 8 -11.4374
1043 1 28.8 0 6.4 -11.6949
1044 2 30.4 1.6 8 -9.84795
1045 1 32 0 6.4 -11.4473
1046 1 33.6 1.6 8 -11.698
1047 3 35.2 0 6.4 -11.1948
1048 1 36.8 1.6 8 -11.6949
1049 1 38.4 0 6.4 -11.7238
1050 2 40 1.6 8 -9.83148
1051 2 41.6 0 6.4 -9.94334
1052 1 43.2 1.6 8 -11.8406
1053 3 44.8 0 6.4 -11.4591
1054 1 46.4 1.6 8 -11.8208
1055 3 48 0 6.4 -11.3833
1056 1 49.6 1.6 8 -11.6983
1057 2 0 3.2 6.4 -9.88793
1058 3 1.6 4.8 8 -11.435
1059 3 3.2 3.2 6.4 -11.3763
1060 2 4.8 4.8 8 -9.75258
1061 2 6.4 3.2 6.4 -9.81139
1062 1 8 4.8 8 -11.7171
1063 3 9.6 3.2 6.4 -11.2688
1064 1 11.2 4.8 8 -11.9019
1065 3 12.8 3.2 6.4 -11.3789
1066 1 14.4 4.8 8 -11.8679
1067 3 16 3.2 6.4 -11.3599
1068 1 17.6 4.8 8 -11.7426
1069 3 19.2 3.2 6.4 -11.242
1070 1 20.8 4.8 8 -11.878
1071 3 22.4 3.2 6.4 -11.3094
1072 1 24 4.8 8 -11.8423
1073 3 25.6 3.2 6.4 -11.361
1074 3 27.2 4.8 8 -11.4312
1075 3 28.8 3.2 6.4 -11.4598
1076 1 30.4 4.8 8 -11.8496
1077 3 32 3.2 6.4 -11.2648
1078 3 33.6 4.8 8 -11.4312
1079 2 35.2 3.2 6.4 -9.89655
1080 2 36.8 4.8 8 -9.90758
1081 1 38.4 3.2 6.4 -11.7538
1082 3 40 4.8 8 -11.372
1083 3 41.6 3.2 6.4 -11.4075
1084 1 43.2 4.8 8 -11.8779
1085 3 44.8 3.2 6.4 -11.2014
1086 1 46.4 4.8 8 -11.8133
1087 2 48 3.2 6.4 -9.87724
1088 2 49.6 4.8 8 -9.87252
1089 3 0 6.4 6.4 -11.4561
1090 3 1.6 8 8 -11.272
1091 3 3.2 6.4 6.4 -11.3866
1092 1 4.8 8 8 -11.7686
1093 3 6.4 6.4 6.4 -11.2987
1094 1 8 8 8 -11.8548
1095 3 9.6 6.4 6.4 -11.4127
1096 3 11.2 8 8 -11.4613
1097 3 12.8 6.4 6.4 -11.414
1098 3 14.4 8 8 -11.3022
1099 3 16 6.4 6.4 -11.2388
1100 1 17.6 8 8 -11.7472
1101 3 19.2 6.4 6.4 -11.3071
1102 3 20.8 8 8 -11.3839
1103 3 22.4 6.4 6.4 -11.3392