ITEM: TIMESTEP
1000
ITEM: NUMBER OF ATOMS
8192
ITEM: BOX BOUNDS pp pp pp
0.0000000000000000e+00 5.1200000000000003e+01
0.0000000000000000e+00 5.1200000000000003e+01
0.0000000000000000e+00 5.1200000000000003e+01
ITEM: ATOMS id type x y z
1 2 0 0 0
2 1 1.6 1.6 1.6
3 3 3.2 0 0
4 1 4.8 1.6 1.6
5 3 6.4 0 0
6 1 8 1.6 1.6
7 4 9.6 0 0
8 2 11.2 1.6 1.6
9 3 12.8 0 0
10 1 14.4 1.6 1.6
11 4 16 0 0
12 3 17.6 1.6 1.6
13 4 19.2 0 0
14 1 20.8 1.6 1.6
15 2 22.4 0 0
16 1 24 1.6 1.6
17 4 25.6 0 0
18 4 27.2 1.6 1.6
19 1 28.8 0 0
20 3 30.4 1.6 1.6
21 2 32 0 0
22 4 33.6 1.6 1.6
23 2 35.2 0 0
24 3 36.8 1.6 1.6
25 4 38.4 0 0
26 3 40 1.6 1.6
27 1 41.6 0 0
28 1 43.2 1.6 1.6
29 2 44.8 0 0
30 4 46.4 1.6 1.6
31 2 48 0 0
32 2 49.6 1.6 1.6
33 1 0 3.2 0
34 2 1.6 4.8 1.6
35 2 3.2 3.2 0
36 2 4.8 4.8 1.6
37 3 6.4 3.2 0
38 3 8 4.8 1.6
39 1 9.6 3.2 0
40 2 11.2 4.8 1.6
41 4 12.8 3.2 0
42 4 14.4 4.8 1.6
43 2 16 3.2 0
44 2 17.6 4.8 1.6
45 3 19.2 3.2 0
46 1 20.8 4.8 1.6
47 2 22.4 3.2 0
48 2 24 4.8 1.6
49 2 25.6 3.2 0
50 1 27.2 4.8 1.6
51 2 28.8 3.2 0
52 3 30.4 4.8 1.6
53 1 32 3.2 0
54 2 33.6 4.8 1.6
55 2 35.2 3.2 0
56 2 36.8 4.8 1.6
57 4 38.4 3.2 0
58 1 40 4.8 1.6
59 3 41.6 3.2 0
60 1 43.2 4.8 1.6
61 2 44.8 3.2 0
62 1 46.4 4.8 1.6
63 2 48 3.2 0
64 2 49.6 4.8 1.6
65 2 0 6.4 0
66 4 1.6 8 1.6
67 2 3.2 6.4 0
68 4 4.8 8 1.6
69 1 6.4 6.4 0
70 3 8 8 1.6
71 1 9.6 6.4 0
72 3 11.2 8 1.6
73 2 12.8 6.4 0
74 2 14.4 8 1.6
75 2 16 6.4 0
76 1 17.6 8 1.6
77 2 19.2 6.4 0
78 2 20.8 8 1.6
79 2 22.4 6.4 0
80 1 24 8 1.6
81 2 25.6 6.4 0
82 2 27.2 8 1.6
83 1 28.8 6.4 0
84 3 30.4 8 1.6
85 3 32 6.4 0
86 4 33.6 8 1.6
87 3 35.2 6.4 0
88 1 36.8 8 1.6
89 2 38.4 6.4 0
90 1 40 8 1.6
91 3 41.6 6.4 0
92 1 43.2 8 1.6
93 3 44.8 6.4 0
94 3 46.4 8 1.6
95 4 48 6.4 0
96 4 49.6 8 1.6
97 3 0 9.6 0
98 1 1.6 11.2 1.6
99 4 3.2 9.6 0
100 3 4.8 11.2 1.6
101 1 6.4 9.6 0
102 4 8 11.2 1.6
103 1 9.6 9.6 0
104 3 11.2 11.2 1.6
105 1 12.8 9.6 0
106 1 14.4 11.2 1.6
107 3 16 9.6 0
108 4 17.6 11.2 1.6
109 3 19.2 9.6 0
110 4 20.8 11.2 1.6
111 2 22.4 9.6 0
112 3 24 11.2 1.6
113 1 25.6 9.6 0
114 4 27.2 11.2 1.6
115 2 28.8 9.6 0
116 1 30.4 11.2 1.6
117 3 32 9.6 0
118 2 33.6 11.2 1.6
119 4 35.2 9.6 0
120 2 36.8 11.2 1.6
121 3 38.4 9.6 0
122 2 40 11.2 1.6
123 4 41.6 9.6 0
124 3 43.2 11.2 1.6
125 3 44.8 9.6 0
126 1 46.4 11.2 1.6
127 3 48 9.6 0
128 1 49.6 11.2 1.6
129 2 0 12.8 0
130 1 1.6 14.4 1.6
131 2 3.2 12.8 0
132 1 4.8 14.4 1.6
133 3 6.4 12.8 0
134 1 8 14.4 1.6
135 1 9.6 12.8 0
136 3 11.2 14.4 1.6
137 4 12.8 12.8 0
138 3 14.4 14.4 1.6
139 3 16 12.8 0
140 2 17.6 14.4 1.6
141 1 19.2 12.8 0
142 4 20.8 14.4 1.6
143 2 22.4 12.8 0
144 1 24 14.4 1.6
145 3 25.6 12.8 0
146 2 27.2 14.4 1.6
147 3 28.8 12.8 0
148 2 30.4 14.4 1.6
149 1 32 12.8 0
150 4 33.6 14.4 1.6
151 1 35.2 12.8 0
152 2 36.8 14.4 1.6
153 3 38.4 12.8 0
154 4 40 14.4 1.6
155 2 41.6 12.8 0
156 3 43.2 14.4 1.6
157 4 44.8 12.8 0
158 2 46.4 14.4 1.6
159 4 48 12.8 0
160 2 49.6 14.4 1.6
161 3 0 16 0
162 2 1.6 17.6 1.6
163 3 3.2 16 0
164 3 4.8 17.6 1.6
165 1 6.4 16 0
166 1 8 17.6 1.6
167 1 9.6 16 0
168 2 11.2 17.6 1.6
169 1 12.8 16 0
170 2 14.4 17.6 1.6
171 4 16 16 0
172 1 17.6 17.6 1.6
173 2 19.2 16 0
174 4 20.8 17.6 1.6
175 1 22.4 16 0
176 3 24 17.6 1.6
177 4 25.6 16 0
178 1 27.2 17.6 1.6
179 3 28.8 16 0
180 4 30.4 17.6 1.6
181 1 32 16 0
182 3 33.6 17.6 1.6
183 2 35.2 16 0
184 4 36.8 17.6 1.6
185 4 38.4 16 0
186 2 40 17.6 1.6
187 2 41.6 16 0
188 4 43.2 17.6 1.6
189 1 44.8 16 0
190 2 46.4 17.6 1.6
191 4 48 16 0
192 4 49.6 17.6 1.6
193 1 0 19.2 0
194 4 1.6 20.8 1.6
195 1 3.2 19.2 0
196 3 4.8 20.8 1.6
197 2 6.4 19.2 0
198 3 8 20.8 1.6
199 3 9.6 19.2 0
200 2 11.2 20.8 1.6
201 1 12.8 19.2 0
202 1 14.4 20.8 1.6
203 3 16 19.2 0
204 4 17.6 20.8 1.6
205 3 19.2 19.2 0
206 1 20.8 20.8 1.6
207 2 22.4 19.2 0
208 2 24 20.8 1.6
209 3 25.6 19.2 0
210 1 27.2 20.8 1.6
211 2 28.8 19.2 0
212 4 30.4 20.8 1.6
213 4 32 19.2 0
214 2 33.6 20.8 1.6
215 4 35.2 19.2 0
216 3 36.8 20.8 1.6
217 2 38.4 19.2 0
218 4 40 20.8 1.6
219 4 41.6 19.2 0
220 3 43.2 20.8 1.6
221 4 44.8 19.2 0
222 1 46.4 20.8 1.6
223 1 48 19.2 0
224 3 49.6 20.8 1.6
225 3 0 22.4 0
226 4 1.6 24 1.6
227 4 3.2 22.4 0
228 2 4.8 24 1.6
229 3 6.4 22.4 0
230 2 8 24 1.6
231 1 9.6 22.4 0
232 2 11.2 24 1.6
233 4 12.8 22.4 0
234 3 14.4 24 1.6
235 4 16 22.4 0
236 3 17.6 24 1.6
237 3 19.2 22.4 0
238 3 20.8 24 1.6
239 2 22.4 22.4 0
240 2 24 24 1.6
241 1 25.6 22.4 0
242 2 27.2 24 1.6
243 1 28.8 22.4 0
244 2 30.4 24 1.6
245 2 32 22.4 0
246 2 33.6 24 1.6
247 3 35.2 22.4 0
248 1 36.8 24 1.6
249 3 38.4 22.4 0
250 2 40 24 1.6
251 4 41.6 22.4 0
252 1 43.2 24 1.6
253 2 44.8 22.4 0
254 2 46.4 24 1.6
255 4 48 22.4 0
256 1 49.6 24 1.6
257 3 0 25.6 0
259 1 3.2 25.6 0
261 1 6.4 25.6 0
263 4 9.6 25.6 0
265 3 12.8 25.6 0
267 4 16 25.6 0
269 2 19.2 25.6 0
271 4 22.4 25.6 0
273 3 25.6 25.6 0
275 3 28.8 25.6 0
277 1 32 25.6 0
279 3 35.2 25.6 0
281 3 38.4 25.6 0
283 4 41.6 25.6 0
285 3 44.8 25.6 0
287 4 48 25.6 0
258 2 1.6 27.2 1.6
289 1 0 28.8 0
260 3 4.8 27.2 1.6
291 1 3.2 28.8 0
262 3 8 27.2 1.6
293 1 6.4 28.8 0
264 1 11.2 27.2 1.6
295 2 9.6 28.8 0
266 1 14.4 27.2 1.6
297 2 12.8 28.8 0
268 3 17.6 27.2 1.6
299 3 16 28.8 0
270 4 20.8 27.2 1.6
301 2 19.2 28.8 0
272 1 24 27.2 1.6
303 2 22.4 28.8 0
305 3 25.6 28.8 0
274 1 27.2 27.2 1.6
307 3 28.8 28.8 0
276 4 30.4 27.2 1.6
309 1 32 28.8 0
278 2 33.6 27.2 1.6
311 2 35.2 28.8 0
280 4 36.8 27.2 1.6
313 1 38.4 28.8 0
282 2 40 27.2 1.6
315 3 41.6 28.8 0
284 2 43.2 27.2 1.6
317 3 44.8 28.8 0
286 1 46.4 27.2 1.6
319 3 48 28.8 0
288 4 49.6 27.2 1.6
290 3 1.6 30.4 1.6
321 1 0 32 0
292 3 4.8 30.4 1.6
323 4 3.2 32 0
294 1 8 30.4 1.6
325 2 6.4 32 0
296 2 11.2 30.4 1.6
327 4 9.6 32 0
298 4 14.4 30.4 1.6
329 1 12.8 32 0
300 2 17.6 30.4 1.6
331 1 16 32 0
302 3 20.8 30.4 1.6
333 3 19.2 32 0
304 4 24 30.4 1.6
335 1 22.4 32 0
337 3 25.6 32 0
306 4 27.2 30.4 1.6
339 4 28.8 32 0
308 4 30.4 30.4 1.6
341 3 32 32 0
310 4 33.6 30.4 1.6
343 3 35.2 32 0
312 4 36.8 30.4 1.6
345 3 38.4 32 0
314 3 40 30.4 1.6
347 3 41.6 32 0
316 2 43.2 30.4 1.6
349 3 44.8 32 0
318 4 46.4 30.4 1.6
351 4 48 32 0
320 4 49.6 30.4 1.6
322 3 1.6 33.6 1.6
353 1 0 35.2 0
324 4 4.8 33.6 1.6
355 3 3.2 35.2 0
326 1 8 33.6 1.6
357 2 6.4 35.2 0
328 4 11.2 33.6 1.6
359 2 9.6 35.2 0
330 2 14.4 33.6 1.6
361 2 12.8 35.2 0
332 3 17.6 33.6 1.6
363 2 16 35.2 0
334 2 20.8 33.6 1.6
365 4 19.2 35.2 0
336 2 24 33.6 1.6
367 2 22.4 35.2 0
369 1 25.6 35.2 0
338 4 27.2 33.6 1.6
371 1 28.8 35.2 0
340 1 30.4 33.6 1.6
373 3 32 35.2 0
342 2 33.6 33.6 1.6
375 2 35.2 35.2 0
344 1 36.8 33.6 1.6
377 3 38.4 35.2 0
346 4 40 33.6 1.6
379 2 41.6 35.2 0
348 1 43.2 33.6 1.6
381 3 44.8 35.2 0
350 3 46.4 33.6 1.6
383 4 48 35.2 0
352 3 49.6 33.6 1.6
354 2 1.6 36.8 1.6
385 3 0 38.4 0
356 4 4.8 36.8 1.6
387 3 3.2 38.4 0
358 4 8 36.8 1.6
389 3 6.4 38.4 0
360 1 11.2 36.8 1.6
391 2 9.6 38.4 0
362 1 14.4 36.8 1.6
393 4 12.8 38.4 0
364 3 17.6 36.8 1.6
395 4 16 38.4 0
366 4 20.8 36.8 1.6
397 4 19.2 38.4 0
368 3 24 36.8 1.6
399 3 22.4 38.4 0
401 1 25.6 38.4 0
370 2 27.2 36.8 1.6
403 4 28.8 38.4 0
372 3 30.4 36.8 1.6
405 3 32 38.4 0
374 1 33.6 36.8 1.6
407 3 35.2 38.4 0
376 1 36.8 36.8 1.6
409 4 38.4 38.4 0
378 4 40 36.8 1.6
411 3 41.6 38.4 0
380 4 43.2 36.8 1.6
413 4 44.8 38.4 0
382 2 46.4 36.8 1.6
415 1 48 38.4 0
384 4 49.6 36.8 1.6
386 2 1.6 40 1.6
417 1 0 41.6 0
388 1 4.8 40 1.6
419 2 3.2 41.6 0
390 1 8 40 1.6
421 3 6.4 41.6 0
392 2 11.2 40 1.6
423 3 9.6 41.6 0
394 4 14.4 40 1.6
425 4 12.8 41.6 0
396 3 17.6 40 1.6
427 2 16 41.6 0
398 4 20.8 40 1.6
429 1 19.2 41.6 0
400 3 24 40 1.6
431 1 22.4 41.6 0
433 4 25.6 41.6 0
402 2 27.2 40 1.6
435 4 28.8 41.6 0
404 4 30.4 40 1.6
437 1 32 41.6 0
406 1 33.6 40 1.6
439 3 35.2 41.6 0
408 3 36.8 40 1.6
441 1 38.4 41.6 0
410 4 40 40 1.6
443 4 41.6 41.6 0
412 1 43.2 40 1.6
445 4 44.8 41.6 0
414 3 46.4 40 1.6
447 2 48 41.6 0
416 4 49.6 40 1.6
418 4 1.6 43.2 1.6
449 1 0 44.8 0
420 3 4.8 43.2 1.6
451 3 3.2 44.8 0
422 1 8 43.2 1.6
453 1 6.4 44.8 0
424 4 11.2 43.2 1.6
455 2 9.6 44.8 0
426 4 14.4 43.2 1.6
457 1 12.8 44.8 0
428 1 17.6 43.2 1.6
459 3 16 44.8 0
430 2 20.8 43.2 1.6
461 3 19.2 44.8 0
432 2 24 43.2 1.6
463 2 22.4 44.8 0
465 4 25.6 44.8 0
434 2 27.2 43.2 1.6
467 4 28.8 44.8 0
436 3 30.4 43.2 1.6
469 4 32 44.8 0
438 2 33.6 43.2 1.6
471 4 35.2 44.8 0
440 2 36.8 43.2 1.6
473 2 38.4 44.8 0
442 2 40 43.2 1.6
475 2 41.6 44.8 0
444 3 43.2 43.2 1.6
477 4 44.8 44.8 0
446 3 46.4 43.2 1.6
479 1 48 44.8 0
448 2 49.6 43.2 1.6
450 4 1.6 46.4 1.6
481 3 0 48 0
452 2 4.8 46.4 1.6
483 4 3.2 48 0
454 4 8 46.4 1.6
485 2 6.4 48 0
456 1 11.2 46.4 1.6
487 3 9.6 48 0
458 2 14.4 46.4 1.6
489 2 12.8 48 0
460 2 17.6 46.4 1.6
491 2 16 48 0
462 4 20.8 46.4 1.6
493 3 19.2 48 0
464 3 24 46.4 1.6
495 1 22.4 48 0
497 3 25.6 48 0
466 4 27.2 46.4 1.6
499 3 28.8 48 0
468 4 30.4 46.4 1.6
501 2 32 48 0
470 2 33.6 46.4 1.6
503 2 35.2 48 0
472 3 36.8 46.4 1.6
505 2 38.4 48 0
474 3 40 46.4 1.6
507 2 41.6 48 0
476 4 43.2 46.4 1.6
509 3 44.8 48 0
478 3 46.4 46.4 1.6
511 4 48 48 0
480 3 49.6 46.4 1.6
482 1 1.6 49.6 1.6
484 4 4.8 49.6 1.6
486 3 8 49.6 1.6
488 1 11.2 49.6 1.6
490 1 14.4 49.6 1.6
492 2 17.6 49.6 1.6
494 3 20.8 49.6 1.6
496 4 24 49.6 1.6
498 1 27.2 49.6 1.6
500 1 30.4 49.6 1.6
502 2 33.6 49.6 1.6
504 4 36.8 49.6 1.6
506 1 40 49.6 1.6
508 1 43.2 49.6 1.6
510 4 46.4 49.6 1.6
512 1 49.6 49.6 1.6
513 4 0 0 3.2
514 4 1.6 1.6 4.8
515 2 3.2 0 3.2
516 2 4.8 1.6 4.8
517 4 6.4 0 3.2
518 3 8 1.6 4.8
519 4 9.6 0 3.2
520 2 11.2 1.6 4.8
521 4 12.8 0 3.2
522 2 14.4 1.6 4.8
523 3 16 0 3.2
524 3 17.6 1.6 4.8
525 4 19.2 0 3.2
526 2 20.8 1.6 4.8
527 4 22.4 0 3.2
528 4 24 1.6 4.8
529 3 25.6 0 3.2
530 1 27.2 1.6 4.8
531 1 28.8 0 3.2
532 2 30.4 1.6 4.8
533 1 32 0 3.2
534 2 33.6 1.6 4.8
535 4 35.2 0 3.2
536 4 36.8 1.6 4.8
537 2 38.4 0 3.2
538 3 40 1.6 4.8
539 3 41.6 0 3.2
540 1 43.2 1.6 4.8
541 1 44.8 0 3.2
542 1 46.4 1.6 4.8
543 4 48 0 3.2
544 1 49.6 1.6 4.8
545 1 0 3.2 3.2
546 1 1.6 4.8 4.8
547 3 3.2 3.2 3.2
548 1 4.8 4.8 4.8
549 3 6.4 3.2 3.2
550 2 8 4.8 4.8
551 2 9.6 3.2 3.2
552 1 11.2 4.8 4.8
553 2 12.8 3.2 3.2
554 3 14.4 4.8 4.8
555 4 16 3.2 3.2
556 4 17.6 4.8 4.8
557 1 19.2 3.2 3.2
558 2 20.8 4.8 4.8
559 3 22.4 3.2 3.2
560 4 24 4.8 4.8
561 4 25.6 3.2 3.2
562 3 27.2 4.8 4.8
563 3 28.8 3.2 3.2
564 3 30.4 4.8 4.8
565 4 32 3.2 3.2
566 4 33.6 4.8 4.8
567 1 35.2 3.2 3.2
568 2 36.8 4.8 4.8
569 4 38.4 3.2 3.2
570 1 40 4.8 4.8
571 3 41.6 3.2 3.2
572 4 43.2 4.8 4.8
573 2 44.8 3.2 3.2
574 2 46.4 4.8 4.8
575 2 48 3.2 3.2
576 4 49.6 4.8 4.8
577 3 0 6.4 3.2
578 3 1.6 8 4.8
579 1 3.2 6.4 3.2
580 3 4.8 8 4.8
581 4 6.4 6.4 3.2
582 2 8 8 4.8
583 2 9.6 6.4 3.2
584 1 11.2 8 4.8
585 1 12.8 6.4 3.2
586 1 14.4 8 4.8
587 2 16 6.4 3.2
588 4 17.6 8 4.8
589 1 19.2 6.4 3.2
590 1 20.8 8 4.8
591 3 22.4 6.4 3.2
592 2 24 8 4.8
593 4 25.6 6.4 3.2
594 1 27.2 8 4.8
595 1 28.8 6.4 3.2
596 4 30.4 8 4.8
597 4 32 6.4 3.2
598 3 33.6 8 4.8
599 4 35.2 6.4 3.2
600 1 36.8 8 4.8
601 2 38.4 6.4 3.2
602 4 40 8 4.8
603 3 41.6 6.4 3.2
604 3 43.2 8 4.8
605 1 44.8 6.4 3.2
606 1 46.4 8 4.8
607 4 48 6.4 3.2
608 1 49.6 8 4.8
609 4 0 9.6 3.2
610 2 1.6 11.2 4.8
611 4 3.2 9.6 3.2
612 3 4.8 11.2 4.8
613 1 6.4 9.6 3.2
614 4 8 11.2 4.8
615 1 9.6 9.6 3.2
616 1 11.2 11.2 4.8
617 2 12.8 9.6 3.2
618 1 14.4 11.2 4.8
619 3 16 9.6 3.2
620 1 17.6 11.2 4.8
621 3 19.2 9.6 3.2
622 1 20.8 11.2 4.8
623 2 22.4 9.6 3.2
624 1 24 11.2 4.8
625 4 25.6 9.6 3.2
626 2 27.2 11.2 4.8
627 3 28.8 9.6 3.2
628 2 30.4 11.2 4.8
629 4 32 9.6 3.2
630 3 33.6 11.2 4.8
631 3 35.2 9.6 3.2
632 2 36.8 11.2 4.8
633 3 38.4 9.6 3.2
634 2 40 11.2 4.8
635 4 41.6 9.6 3.2
636 2 43.2 11.2 4.8
637 3 44.8 9.6 3.2
638 4 46.4 11.2 4.8
639 3 48 9.6 3.2
640 2 49.6 11.2 4.8
641 2 0 12.8 3.2
642 3 1.6 14.4 4.8
643 1 3.2 12.8 3.2
644 4 4.8 14.4 4.8
645 4 6.4 12.8 3.2
646 2 8 14.4 4.8
647 2 9.6 12.8 3.2
648 1 11.2 14.4 4.8
649 4 12.8 12.8 3.2
650 3 14.4 14.4 4.8
651 2 16 12.8 3.2
652 4 17.6 14.4 4.8
653 3 19.2 12.8 3.2
654 3 20.8 14.4 4.8
655 4 22.4 12.8 3.2
656 3 24 14.4 4.8
657 3 25.6 12.8 3.2
658 1 27.2 14.4 4.8
659 4 28.8 12.8 3.2
660 4 30.4 14.4 4.8
661 4 32 12.8 3.2
662 1 33.6 14.4 4.8
663 1 35.2 12.8 3.2
664 2 36.8 14.4 4.8
665 1 38.4 12.8 3.2
666 2 40 14.4 4.8
667 1 41.6 12.8 3.2
668 3 43.2 14.4 4.8
669 1 44.8 12.8 3.2
670 3 46.4 14.4 4.8
671 3 48 12.8 3.2
672 2 49.6 14.4 4.8
673 1 0 16 3.2
674 2 1.6 17.6 4.8
675 3 3.2 16 3.2
676 4 4.8 17.6 4.8
677 3 6.4 16 3.2
678 3 8 17.6 4.8
679 3 9.6 16 3.2
680 4 11.2 17.6 4.8
681 1 12.8 16 3.2
682 4 14.4 17.6 4.8
683 1 16 16 3.2
684 1 17.6 17.6 4.8
685 4 19.2 16 3.2
686 1 20.8 17.6 4.8
687 2 22.4 16 3.2
688 4 24 17.6 4.8
689 4 25.6 16 3.2
690 1 27.2 17.6 4.8
691 3 28.8 16 3.2
692 2 30.4 17.6 4.8
693 3 32 16 3.2
694 1 33.6 17.6 4.8
695 2 35.2 16 3.2
696 4 36.8 17.6 4.8
697 1 38.4 16 3.2
698 2 40 17.6 4.8
699 2 41.6 16 3.2
700 3 43.2 17.6 4.8
701 1 44.8 16 3.2
702 2 46.4 17.6 4.8
703 3 48 16 3.2
704 2 49.6 17.6 4.8
705 2 0 19.2 3.2
706 2 1.6 20.8 4.8
707 3 3.2 19.2 3.2
708 1 4.8 20.8 4.8
709 1 6.4 19.2 3.2
710 4 8 20.8 4.8
711 4 9.6 19.2 3.2
712 4 11.2 20.8 4.8
713 4 12.8 19.2 3.2
714 3 14.4 20.8 4.8
715 2 16 19.2 3.2
716 4 17.6 20.8 4.8
717 3 19.2 19.2 3.2
718 4 20.8 20.8 4.8
719 3 22.4 19.2 3.2
720 2 24 20.8 4.8
721 4 25.6 19.2 3.2
722 4 27.2 20.8 4.8
723 3 28.8 19.2 3.2
724 4 30.4 20.8 4.8
725 2 32 19.2 3.2
726 4 33.6 20.8 4.8
727 1 35.2 19.2 3.2
728 3 36.8 20.8 4.8
729 1 38.4 19.2 3.2
730 3 40 20.8 4.8
731 1 41.6 19.2 3.2
732 2 43.2 20.8 4.8
733 2 44.8 19.2 3.2
734 2 46.4 20.8 4.8
735 1 48 19.2 3.2
736 1 49.6 20.8 4.8
737 2 0 22.4 3.2
738 2 1.6 24 4.8
739 4 3.2 22.4 3.2
740 1 4.8 24 4.8
741 4 6.4 22.4 3.2
742 3 8 24 4.8
743 2 9.6 22.4 3.2
744 4 11.2 24 4.8
745 1 12.8 22.4 3.2
746 4 14.4 24 4.8
747 2 16 22.4 3.2
748 2 17.6 24 4.8
749 4 19.2 22.4 3.2
750 1 20.8 24 4.8
751 4 22.4 22.4 3.2
752 2 24 24 4.8
753 4 25.6 22.4 3.2
754 2 27.2 24 4.8
755 2 28.8 22.4 3.2
756 3 30.4 24 4.8
757 1 32 22.4 3.2
758 3 33.6 24 4.8
759 1 35.2 22.4 3.2
760 3 36.8 24 4.8
761 4 38.4 22.4 3.2
762 3 40 24 4.8
763 4 41.6 22.4 3.2
764 3 43.2 24 4.8
765 1 44.8 22.4 3.2
766 2 46.4 24 4.8
767 2 48 22.4 3.2
768 2 49.6 24 4.8
769 2 0 25.6 3.2
771 1 3.2 25.6 3.2
773 2 6.4 25.6 3.2
775 3 9.6 25.6 3.2
777 2 12.8 25.6 3.2
779 1 16 25.6 3.2
781 4 19.2 25.6 3.2
783 2 22.4 25.6 3.2
785 2 25.6 25.6 3.2
787 4 28.8 25.6 3.2
789 2 32 25.6 3.2
791 4 35.2 25.6 3.2
793 1 38.4 25.6 3.2
795 4 41.6 25.6 3.2
797 1 44.8 25.6 3.2
799 4 48 25.6 3.2
770 2 1.6 27.2 4.8
801 3 0 28.8 3.2
772 1 4.8 27.2 4.8
803 1 3.2 28.8 3.2
774 1 8 27.2 4.8
805 4 6.4 28.8 3.2
776 1 11.2 27.2 4.8
807 3 9.6 28.8 3.2
778 3 14.4 27.2 4.8
809 4 12.8 28.8 3.2
780 4 17.6 27.2 4.8
811 3 16 28.8 3.2
782 3 20.8 27.2 4.8
813 1 19.2 28.8 3.2
784 1 24 27.2 4.8
815 2 22.4 28.8 3.2
817 2 25.6 28.8 3.2
786 1 27.2 27.2 4.8
819 3 28.8 28.8 3.2
788 2 30.4 27.2 4.8
821 3 32 28.8 3.2
790 1 33.6 27.2 4.8
823 3 35.2 28.8 3.2
792 3 36.8 27.2 4.8
825 2 38.4 28.8 3.2
794 3 40 27.2 4.8
827 1 41.6 28.8 3.2
796 3 43.2 27.2 4.8
829 2 44.8 28.8 3.2
798 3 46.4 27.2 4.8
831 3 48 28.8 3.2
800 4 49.6 27.2 4.8
802 2 1.6 30.4 4.8
833 2 0 32 3.2
804 3 4.8 30.4 4.8
835 1 3.2 32 3.2
806 4 8 30.4 4.8
837 3 6.4 32 3.2
808 1 11.2 30.4 4.8
839 3 9.6 32 3.2
810 1 14.4 30.4 4.8
841 2 12.8 32 3.2
812 4 17.6 30.4 4.8
843 2 16 32 3.2
814 3 20.8 30.4 4.8
845 1 19.2 32 3.2
816 1 24 30.4 4.8
847 1 22.4 32 3.2
849 2 25.6 32 3.2
818 2 27.2 30.4 4.8
851 4 28.8 32 3.2
820 1 30.4 30.4 4.8
853 2 32 32 3.2
822 1 33.6 30.4 4.8
855 3 35.2 32 3.2
824 2 36.8 30.4 4.8
857 1 38.4 32 3.2
826 3 40 30.4 4.8
859 1 41.6 32 3.2
828 2 43.2 30.4 4.8
861 3 44.8 32 3.2
830 1 46.4 30.4 4.8
863 4 48 32 3.2
832 4 49.6 30.4 4.8
834 4 1.6 33.6 4.8
865 3 0 35.2 3.2
836 3 4.8 33.6 4.8
867 1 3.2 35.2 3.2
838 4 8 33.6 4.8
869 2 6.4 35.2 3.2
840 3 11.2 33.6 4.8
871 4 9.6 35.2 3.2
842 4 14.4 33.6 4.8
873 2 12.8 35.2 3.2
844 1 17.6 33.6 4.8
875 3 16 35.2 3.2
846 3 20.8 33.6 4.8
877 1 19.2 35.2 3.2
848 2 24 33.6 4.8
879 1 22.4 35.2 3.2
881 3 25.6 35.2 3.2
850 1 27.2 33.6 4.8
883 2 28.8 35.2 3.2
852 2 30.4 33.6 4.8
885 4 32 35.2 3.2
854 2 33.6 33.6 4.8
887 1 35.2 35.2 3.2
856 3 36.8 33.6 4.8
889 2 38.4 35.2 3.2
858 4 40 33.6 4.8
891 2 41.6 35.2 3.2
860 4 43.2 33.6 4.8
893 2 44.8 35.2 3.2
862 4 46.4 33.6 4.8
895 3 48 35.2 3.2
864 1 49.6 33.6 4.8
866 1 1.6 36.8 4.8
897 4 0 38.4 3.2
868 4 4.8 36.8 4.8
899 3 3.2 38.4 3.2
870 2 8 36.8 4.8
901 1 6.4 38.4 3.2
872 1 11.2 36.8 4.8
903 4 9.6 38.4 3.2
874 3 14.4 36.8 4.8
905 3 12.8 38.4 3.2
876 4 17.6 36.8 4.8
907 4 16 38.4 3.2
878 3 20.8 36.8 4.8
909 3 19.2 38.4 3.2
880 2 24 36.8 4.8
911 4 22.4 38.4 3.2
913 4 25.6 38.4 3.2
882 4 27.2 36.8 4.8
915 3 28.8 38.4 3.2
884 4 30.4 36.8 4.8
917 3 32 38.4 3.2
886 2 33.6 36.8 4.8
919 3 35.2 38.4 3.2
888 4 36.8 36.8 4.8
921 2 38.4 38.4 3.2
890 3 40 36.8 4.8
923 2 41.6 38.4 3.2
892 2 43.2 36.8 4.8
925 1 44.8 38.4 3.2
894 1 46.4 36.8 4.8
927 1 48 38.4 3.2
896 1 49.6 36.8 4.8
898 1 1.6 40 4.8
929 1 0 41.6 3.2
900 1 4.8 40 4.8
931 4 3.2 41.6 3.2
902 2 8 40 4.8
933 3 6.4 41.6 3.2
904 1 11.2 40 4.8
935 2 9.6 41.6 3.2
906 4 14.4 40 4.8
937 3 12.8 41.6 3.2
908 3 17.6 40 4.8
939 3 16 41.6 3.2
910 3 20.8 40 4.8
941 1 19.2 41.6 3.2
912 3 24 40 4.8
943 3 22.4 41.6 3.2
945 4 25.6 41.6 3.2
914 4 27.2 40 4.8
947 2 28.8 41.6 3.2
916 4 30.4 40 4.8
949 4 32 41.6 3.2
918 3 33.6 40 4.8
951 3 35.2 41.6 3.2
920 1 36.8 40 4.8
953 1 38.4 41.6 3.2
922 4 40 40 4.8
955 2 41.6 41.6 3.2
924 1 43.2 40 4.8
957 4 44.8 41.6 3.2
926 3 46.4 40 4.8
959 1 48 41.6 3.2
928 3 49.6 40 4.8
930 3 1.6 43.2 4.8
961 1 0 44.8 3.2
932 4 4.8 43.2 4.8
963 1 3.2 44.8 3.2
934 1 8 43.2 4.8
965 3 6.4 44.8 3.2
936 3 11.2 43.2 4.8
967 4 9.6 44.8 3.2
938 1 14.4 43.2 4.8
969 3 12.8 44.8 3.2
940 1 17.6 43.2 4.8
971 3 16 44.8 3.2
942 2 20.8 43.2 4.8
973 4 19.2 44.8 3.2
944 1 24 43.2 4.8
975 1 22.4 44.8 3.2
977 3 25.6 44.8 3.2
946 2 27.2 43.2 4.8
979 4 28.8 44.8 3.2
948 4 30.4 43.2 4.8
981 1 32 44.8 3.2
950 4 33.6 43.2 4.8
983 1 35.2 44.8 3.2
952 3 36.8 43.2 4.8
985 1 38.4 44.8 3.2
954 3 40 43.2 4.8
987 4 41.6 44.8 3.2
956 1 43.2 43.2 4.8
989 1 44.8 44.8 3.2
958 1 46.4 43.2 4.8
991 4 48 44.8 3.2
960 3 49.6 43.2 4.8
962 2 1.6 46.4 4.8
993 2 0 48 3.2
964 3 4.8 46.4 4.8
995 4 3.2 48 3.2
966 3 8 46.4 4.8
997 1 6.4 48 3.2
968 4 11.2 46.4 4.8
999 2 9.6 48 3.2
970 4 14.4 46.4 4.8
1001 2 12.8 48 3.2
972 3 17.6 46.4 4.8
1003 4 16 48 3.2
974 2 20.8 46.4 4.8
1005 2 19.2 48 3.2
976 2 24 46.4 4.8
1007 1 22.4 48 3.2
1009 3 25.6 48 3.2
978 1 27.2 46.4 4.8
1011 2 28.8 48 3.2
980 3 30.4 46.4 4.8
1013 1 32 48 3.2
982 2 33.6 46.4 4.8
1015 1 35.2 48 3.2
984 4 36.8 46.4 4.8
1017 4 38.4 48 3.2
986 4 40 46.4 4.8
1019 4 41.6 48 3.2
988 3 43.2 46.4 4.8
1021 3 44.8 48 3.2
990 4 46.4 46.4 4.8
1023 2 48 48 3.2
992 2 49.6 46.4 4.8
994 2 1.6 49.6 4.8
996 3 4.8 49.6 4.8
998 2 8 49.6 4.8
1000 3 11.2 49.6 4.8
1002 4 14.4 49.6 4.8
1004 1 17.6 49.6 4.8
1006 3 20.8 49.6 4.8
1008 3 24 49.6 4.8
1010 2 27.2 49.6 4.8
1012 3 30.4 49.6 4.8
1014 2 33.6 49.6 4.8
1016 1 36.8 49.6 4.8
1018 1 40 49.6 4.8
1020 1 43.2 49.6 4.8
1022 2 46.4 49.6 4.8
1024 3 49.6 49.6 4.8
1025 3 0 0 6.4
1026 2 1.6 1.6 8
1027 1 3.2 0 6.4
1028 3 4.8 1.6 8
1029 1 6.4 0 6.4
1030 4 8 1.6 8
1031 2 9.6 0 6.4
1032 4 11.2 1.6 8
1033 1 12.8 0 6.4
1034 1 14.4 1.6 8
1035 4 16 0 6.4
1036 2 17.6 1.6 8
1037 1 19.2 0 6.4
1038 2 20.8 1.6 8
1039 1 22.4 0 6.4
1040 2 24 1.6 8
1041 2 25.6 0 6.4
1042 1 27.2 1.6 8
1043 2 28.8 0 6.4
1044 3 30.4 1.6 8
1045 2 32 0 6.4
1046 3 33.6 1.6 8
1047 2 35.2 0 6.4
1048 2 36.8 1.6 8
1049 1 38.4 0 6.4
1050 2 40 1.6 8
1051 2 41.6 0 6.4
1052 2 43.2 1.6 8
1053 3 44.8 0 6.4
1054 1 46.4 1.6 8
1055 3 48 0 6.4
1056 1 49.6 1.6 8
1057 2 0 3.2 6.4
1058 1 1.6 4.8 8
1059 4 3.2 3.2 6.4
1060 1 4.8 4.8 8
1061 4 6.4 3.2 6.4
1062 4 8 4.8 8
1063 3 9.6 3.2 6.4
1064 1 11.2 4.8 8
1065 3 12.8 3.2 6.4
1066 4 14.4 4.8 8
1067 4 16 3.2 6.4
1068 2 17.6 4.8 8
1069 1 19.2 3.2 6.4
1070 1 20.8 4.8 8
1071 3 22.4 3.2 6.4
1072 2 24 4.8 8
1073 4 25.6 3.2 6.4
1074 2 27.2 4.8 8
1075 2 28.8 3.2 6.4
1076 3 30.4 4.8 8
1077 1 32 3.2 6.4
1078 1 33.6 4.8 8
1079 2 35.2 3.2 6.4
1080 4 36.8 4.8 8
1081 3 38.4 3.2 6.4
1082 1 40 4.8 8
1083 4 41.6 3.2 6.4
1084 1 43.2 4.8 8
1085 3 44.8 3.2 6.4
1086 3 46.4 4.8 8
1087 3 48 3.2 6.4
1088 2 49.6 4.8 8
1089 2 0 6.4 6.4
1090 3 1.6 8 8
1091 4 3.2 6.4 6.4
1092 3 4.8 8 8
1093 3 6.4 6.4 6.4
1094 4 8 8 8
1095 3 9.6 6.4 6.4
1096 3 11.2 8 8
1097 3 12.8 6.4 6.4
1098 3 14.4 8 8
1099 4 16 6.4 6.4
1100 3 17.6 8 8
1101 3 19.2 6.4 6.4
1102 4 20.8 8 8
1103 1 22.4 6.4 6.4
1104 3 24 8 8
1105 1 25.6 6.4 6.4
1106 4 27.2 8 8
1107 3 28.8 6.4 6.4
1108 1 30.4 8 8
1109 1 32 6.4 6.4
1110 3 33.6 8 8
1111 4 35.2 6.4 6.4
1112 2 36.8 8 8
1113 3 38.4 6.4 6.4
1114 1 40 8 8
1115 3 41.6 6.4 6.4
1116 4 43.2 8 8
1117 4 44.8 6.4 6.4
1118 2 46.4 8 8
1119 2 48 6.4 6.4
1120 4 49.6 8 8
1121 1 0 9.6 6.4
1122 2 1.6 11.2 8
1123 4 3.2 9.6 6.4
1124 3 4.8 11.2 8
1125 4 6.4 9.6 6.4
1126 2 8 11.2 8
1127 3 9.6 9.6 6.4
1128 1 11.2 11.2 8
1129 4 12.8 9.6 6.4
1130 1 14.4 11.2 8
1131 3 16 9.6 6.4
1132 1 17.6 11.2 8
1133 1 19.2 9.6 6.4
1134 2 20.8 11.2 8
1135 3 22.4 9.6 6.4
1136 3 24 11.2 8
1137 4 25.6 9.6 6.4
1138 1 27.2 11.2 8
1139 2 28.8 9.6 6.4
1140 1 30.4 11.2 8
1141 3 32 9.6 6.4
1142 1 33.6 11.2 8
1143 4 35.2 9.6 6.4
1144 1 36.8 11.2 8
1145 3 38.4 9.6 6.4
1146 1 40 11.2 8
1147 1 41.6 9.6 6.4
1148 4 43.2 11.2 8
1149 2 44.8 9.6 6.4
1150 3 46.4 11.2 8
1151 3 48 9.6 6.4
1152 3 49.6 11.2 8
1153 4 0 12.8 6.4
1154 4 1.6 14.4 8
1155 1 3.2 12.8 6.4
1156 1 4.8 14.4 8
1157 4 6.4 12.8 6.4
1158 2 8 14.4 8
1159 3 9.6 12.8 6.4
1160 1 11.2 14.4 8
1161 2 12.8 12.8 6.4
1162 1 14.4 14.4 8
1163 4 16 12.8 6.4
1164 2 17.6 14.4 8
1165 3 19.2 12.8 6.4
1166 1 20.8 14.4 8
1167 4 22.4 12.8 6.4
1168 4 24 14.4 8
1169 1 25.6 12.8 6.4
1170 1 27.2 14.4 8
1171 3 28.8 12.8 6.4
1172 1 30.4 14.4 8
1173 3 32 12.8 6.4
1174 3 33.6 14.4 8
1175 1 35.2 12.8 6.4
1176 2 36.8 14.4 8
1177 4 38.4 12.8 6.4
1178 2 40 14.4 8
1179 4 41.6 12.8 6.4
1180 4 43.2 14.4 8
1181 1 44.8 12.8 6.4
1182 3 46.4 14.4 8
1183 4 48 12.8 6.4
1184 3 49.6 14.4 8
1185 3 0 16 6.4
1186 4 1.6 17.6 8
1187 2 3.2 16 6.4
1188 2 4.8 17.6 8
1189 4 6.4 16 6.4
1190 4 8 17.6 8
1191 3 9.6 16 6.4
1192 3 11.2 17.6 8
1193 3 12.8 16 6.4
1194 3 14.4 17.6 8
1195 2 16 16 6.4
1196 4 17.6 17.6 8
1197 4 19.2 16 6.4
1198 2 20.8 17.6 8
1199 2 22.4 16 6.4
1200 1 24 17.6 8
1201 3 25.6 16 6.4
1202 4 27.2 17.6 8
1203 3 28.8 16 6.4
1204 3 30.4 17.6 8
1205 3 32 16 6.4
1206 1 33.6 17.6 8
1207 3 35.2 16 6.4
1208 2 36.8 17.6 8
1209 3 38.4 16 6.4
1210 4 40 17.6 8
1211 4 41.6 16 6.4
1212 3 43.2 17.6 8
1213 4 44.8 16 6.4
1214 3 46.4 17.6 8
1215 1 48 16 6.4
1216 2 49.6 17.6 8
1217 1 0 19.2 6.4
1218 2 1.6 20.8 8
1219 4 3.2 19.2 6.4
1220 1 4.8 20.8 8
1221 3 6.4 19.2 6.4
1222 1 8 20.8 8
1223 3 9.6 19.2 6.4
1224 1 11.2 20.8 8
1225 4 12.8 19.2 6.4
1226 1 14.4 20.8 8
1227 3 16 19.2 6.4
1228 4 17.6 20.8 8
1229 4 19.2 19.2 6.4
1230 1 20.8 20.8 8
1231 3 22.4 19.2 6.4
1232 4 24 20.8 8
1233 2 25.6 19.2 6.4
1234 2 27.2 20.8 8
1235 1 28.8 19.2 6.4
1236 4 30.4 20.8 8
1237 3 32 19.2 6.4
1238 4 33.6 20.8 8
1239 2 35.2 19.2 6.4
1240 4 36.8 20.8 8
1241 3 38.4 19.2 6.4
1242 3 40 20.8 8
1243 2 41.6 19.2 6.4
1244 4 43.2 20.8 8
1245 2 44.8 19.2 6.4
1246 3 46.4 20.8 8
1247 4 48 19.2 6.4
1248 4 49.6 20.8 8
1249 2 0 22.4 6.4
1250 3 1.6 24 8
1251 3 3.2 22.4 6.4
1252 1 4.8 24 8
1253 3 6.4 22.4 6.4
1254 1 8 24 8
1255 1 9.6 22.4 6.4
1256 2 11.2 24 8
1257 3 12.8 22.4 6.4
1258 2 14.4 24 8
1259 3 16 22.4 6.4
1260 4 17.6 24 8
1261 4 19.2 22.4 6.4
1262 3 20.8 24 8
1263 2 22.4 22.4 6.4
1264 3 24 24 8
1265 1 25.6 22.4 6.4
1266 3 27.2 24 8
1267 4 28.8 22.4 6.4
1268 2 30.4 24 8
1269 2 32 22.4 6.4
1270 4 33.6 24 8
1271 1 35.2 22.4 6.4
1272 3 36.8 24 8
1273 1 38.4 22.4 6.4
1274 4 40 24 8
1275 3 41.6 22.4 6.4
1276 4 43.2 24 8
1277 1 44.8 22.4 6.4
1278 3 46.4 24 8
1279 1 48 22.4 6.4
1280 4 49.6 24 8
1281 1 0 25.6 6.4
1283 3 3.2 25.6 6.4
1285 2 6.4 25.6 6.4
1287 1 9.6 25.6 6.4
1289 3 12.8 25.6 6.4
1291 4 16 25.6 6.4
1293 4 19.2 25.6 6.4
1295 1 22.4 25.6 6.4
1297 1 25.6 25.6 6.4
1299 3 28.8 25.6 6.4
1301 1 32 25.6 6.4
1303 3 35.2 25.6 6.4
1305 4 38.4 25.6 6.4
1307 1 41.6 25.6 6.4
1309 1 44.8 25.6 6.4
1311 3 48 25.6 6.4
1282 2 1.6 27.2 8
1313 2 0 28.8 6.4
1284 4 4.8 27.2 8
1315 3 3.2 28.8 6.4
1286 4 8 27.2 8
1317 2 6.4 28.8 6.4
1288 1 11.2 27.2 8
1319 4 9.6 28.8 6.4
1290 2 14.4 27.2 8
1321 2 12.8 28.8 6.4
1292 2 17.6 27.2 8
1323 2 16 28.8 6.4
1294 2 20.8 27.2 8
1325 4 19.2 28.8 6.4
1296 2 24 27.2 8
1327 1 22.4 28.8 6.4
1329 2 25.6 28.8 6.4
1298 4 27.2 27.2 8
1331 4 28.8 28.8 6.4
1300 3 30.4 27.2 8
1333 2 32 28.8 6.4
1302 1 33.6 27.2 8
1335 1 35.2 28.8 6.4
1304 1 36.8 27.2 8
1337 1 38.4 28.8 6.4
1306 2 40 27.2 8
1339 4 41.6 28.8 6.4
1308 2 43.2 27.2 8
1341 4 44.8 28.8 6.4
1310 4 46.4 27.2 8
1343 4 48 28.8 6.4
1312 4 49.6 27.2 8
1314 2 1.6 30.4 8
1345 2 0 32 6.4
1316 3 4.8 30.4 8
1347 1 3.2 32 6.4
1318 2 8 30.4 8
1349 1 6.4 32 6.4
1320 3 11.2 30.4 8
1351 2 9.6 32 6.4
1322 1 14.4 30.4 8
1353 4 12.8 32 6.4
1324 1 17.6 30.4 8
1355 3 16 32 6.4
1326 3 20.8 30.4 8
1357 3 19.2 32 6.4
1328 2 24 30.4 8
1359 4 22.4 32 6.4
1361 1 25.6 32 6.4
1330 2 27.2 30.4 8
1363 2 28.8 32 6.4
1332 3 30.4 30.4 8
1365 4 32 32 6.4
1334 2 33.6 30.4 8
1367 1 35.2 32 6.4
1336 2 36.8 30.4 8
1369 2 38.4 32 6.4
1338 4 40 30.4 8
1371 3 41.6 32 6.4
1340 1 43.2 30.4 8
1373 3 44.8 32 6.4
1342 3 46.4 30.4 8
1375 3 48 32 6.4
1344 3 49.6 30.4 8
1346 1 1.6 33.6 8
1377 3 0 35.2 6.4
1348 3 4.8 33.6 8
1379 2 3.2 35.2 6.4
1350 2 8 33.6 8
1381 3 6.4 35.2 6.4
1352 4 11.2 33.6 8
1383 4 9.6 35.2 6.4
1354 2 14.4 33.6 8
1385 4 12.8 35.2 6.4
1356 4 17.6 33.6 8
1387 3 16 35.2 6.4
1358 3 20.8 33.6 8
1389 4 19.2 35.2 6.4
1360 4 24 33.6 8
1391 2 22.4 35.2 6.4
1393 4 25.6 35.2 6.4
1362 1 27.2 33.6 8
1395 2 28.8 35.2 6.4
1364 1 30.4 33.6 8
1397 2 32 35.2 6.4
1366 1 33.6 33.6 8
1399 1 35.2 35.2 6.4
1368 4 36.8 33.6 8
1401 1 38.4 35.2 6.4
1370 2 40 33.6 8
1403 1 41.6 35.2 6.4
1372 3 43.2 33.6 8
1405 4 44.8 35.2 6.4
1374 4 46.4 33.6 8
1407 3 48 35.2 6.4
1376 4 49.6 33.6 8
1378 1 1.6 36.8 8
1409 2 0 38.4 6.4
1380 4 4.8 36.8 8
1411 3 3.2 38.4 6.4
1382 3 8 36.8 8
1413 1 6.4 38.4 6.4
1384 4 11.2 36.8 8
1415 3 9.6 38.4 6.4
1386 4 14.4 36.8 8
1417 3 12.8 38.4 6.4
1388 2 17.6 36.8 8
1419 1 16 38.4 6.4
1390 4 20.8 36.8 8
1421 1 19.2 38.4 6.4
1392 2 24 36.8 8
1423 2 22.4 38.4 6.4
1425 4 25.6 38.4 6.4
1394 2 27.2 36.8 8
1427 3 28.8 38.4 6.4
1396 3 30.4 36.8 8
1429 4 32 38.4 6.4
1398 2 33.6 36.8 8
1431 4 35.2 38.4 6.4
1400 3 36.8 36.8 8
1433 3 38.4 38.4 6.4
1402 1 40 36.8 8
1435 4 41.6 38.4 6.4
1404 1 43.2 36.8 8
1437 2 44.8 38.4 6.4
1406 1 46.4 36.8 8
1439 4 48 38.4 6.4
1408 2 49.6 36.8 8
1410 1 1.6 40 8
1441 3 0 41.6 6.4
1412 2 4.8 40 8
1443 2 3.2 41.6 6.4
1414 1 8 40 8
1445 2 6.4 41.6 6.4
1416 1 11.2 40 8
1447 1 9.6 41.6 6.4
1418 3 14.4 40 8
1449 3 12.8 41.6 6.4
1420 3 17.6 40 8
1451 4 16 41.6 6.4
1422 2 20.8 40 8
1453 2 19.2 41.6 6.4
1424 4 24 40 8
1455 4 22.4 41.6 6.4
1457 4 25.6 41.6 6.4
1426 1 27.2 40 8
1459 4 28.8 41.6 6.4
1428 1 30.4 40 8
1461 4 32 41.6 6.4
1430 3 33.6 40 8
1463 2 35.2 41.6 6.4
1432 4 36.8 40 8
1465 4 38.4 41.6 6.4
1434 3 40 40 8
1467 2 41.6 41.6 6.4
1436 1 43.2 40 8
1469 4 44.8 41.6 6.4
1438 2 46.4 40 8
1471 4 48 41.6 6.4
1440 4 49.6 40 8
1442 1 1.6 43.2 8
1473 3 0 44.8 6.4
1444 3 4.8 43.2 8
1475 4 3.2 44.8 6.4
1446 3 8 43.2 8
1477 4 6.4 44.8 6.4
1448 2 11.2 43.2 8
1479 1 9.6 44.8 6.4
1450 1 14.4 43.2 8
1481 4 12.8 44.8 6.4
1452 4 17.6 43.2 8
1483 2 16 44.8 6.4
1454 1 20.8 43.2 8
1485 1 19.2 44.8 6.4
1456 2 24 43.2 8
1487 2 22.4 44.8 6.4
1489 4 25.6 44.8 6.4
1458 2 27.2 43.2 8
1491 2 28.8 44.8 6.4
1460 3 30.4 43.2 8
1493 3 32 44.8 6.4
1462 4 33.6 43.2 8
1495 2 35.2 44.8 6.4
1464 3 36.8 43.2 8
1497 4 38.4 44.8 6.4
1466 2 40 43.2 8
1499 2 41.6 44.8 6.4
1468 2 43.2 43.2 8
1501 2 44.8 44.8 6.4
1470 2 46.4 43.2 8
1503 3 48 44.8 6.4
1472 4 49.6 43.2 8
1474 1 1.6 46.4 8
1505 1 0 48 6.4
1476 3 4.8 46.4 8
1507 2 3.2 48 6.4
1478 3 8 46.4 8
1509 1 6.4 48 6.4
1480 2 11.2 46.4 8
1511 1 9.6 48 6.4
1482 3 14.4 46.4 8
1513 3 12.8 48 6.4
1484 2 17.6 46.4 8
1515 3 16 48 6.4
1486 1 20.8 46.4 8
1517 4 19.2 48 6.4
1488 3 24 46.4 8
1519 4 22.4 48 6.4
1521 3 25.6 48 6.4
1490 4 27.2 46.4 8
1523 4 28.8 48 6.4
1492 2 30.4 46.4 8
1525 2 32 48 6.4
1494 1 33.6 46.4 8
1527 3 35.2 48 6.4
1496 1 36.8 46.4 8
1529 2 38.4 48 6.4
1498 1 40 46.4 8
1531 2 41.6 48 6.4
1500 1 43.2 46.4 8
1533 1 44.8 48 6.4
1502 1 46.4 46.4 8
1535 2 48 48 6.4
1504 1 49.6 46.4 8
1506 1 1.6 49.6 8
1508 4 4.8 49.6 8
1510 3 8 49.6 8
1512 4 11.2 49.6 8
1514 3 14.4 49.6 8
1516 1 17.6 49.6 8
1518 2 20.8 49.6 8
1520 4 24 49.6 8
1522 4 27.2 49.6 8
1524 4 30.4 49.6 8
1526 1 33.6 49.6 8
1528 1 36.8 49.6 8
1530 2 40 49.6 8
1532 1 43.2 49.6 8
1534 2 46.4 49.6 8
1536 1 49.6 49.6 8
1537 4 0 0 9.6
1538 2 1.6 1.6 11.2
1539 2 3.2 0 9.6
1540 1 4.8 1.6 11.2
1541 3 6.4 0 9.6
1542 3 8 1.6 11.2
1543 1 9.6 0 9.6
1544 1 11.2 1.6 11.2
1545 4 12.8 0 9.6
1546 1 14.4 1.6 11.2
1547 2 16 0 9.6
1548 2 17.6 1.6 11.2
1549 2 19.2 0 9.6
1550 4 20.8 1.6 11.2
1551 2 22.4 0 9.6
1552 1 24 1.6 11.2
1553 2 25.6 0 9.6
1554 1 27.2 1.6 11.2
1555 2 28.8 0 9.6
1556 2 30.4 1.6 11.2
1557 4 32 0 9.6
1558 3 33.6 1.6 11.2
1559 1 35.2 0 9.6
1560 3 36.8 1.6 11.2
1561 4 38.4 0 9.6
1562 3 40 1.6 11.2
1563 3 41.6 0 9.6
1564 4 43.2 1.6 11.2
1565 2 44.8 0 9.6
1566 1 46.4 1.6 11.2
1567 2 48 0 9.6
1568 2 49.6 1.6 11.2
1569 2 0 3.2 9.6
1570 3 1.6 4.8 11.2
1571 3 3.2 3.2 9.6
1572 3 4.8 4.8 11.2
1573 4 6.4 3.2 9.6
1574 4 8 4.8 11.2
1575 3 9.6 3.2 9.6
1576 3 11.2 4.8 11.2
1577 3 12.8 3.2 9.6
1578 4 14.4 4.8 11.2
1579 3 16 3.2 9.6
1580 4 17.6 4.8 11.2
1581 2 19.2 3.2 9.6
1582 3 20.8 4.8 11.2
1583 1 22.4 3.2 9.6
1584 2 24 4.8 11.2
1585 2 25.6 3.2 9.6
1586 2 27.2 4.8 11.2
1587 2 28.8 3.2 9.6
1588 4 30.4 4.8 11.2
1589 1 32 3.2 9.6
1590 1 33.6 4.8 11.2
1591 2 35.2 3.2 9.6
1592 4 36.8 4.8 11.2
1593 4 38.4 3.2 9.6
1594 4 40 4.8 11.2
1595 3 41.6 3.2 9.6
1596 2 43.2 4.8 11.2
1597 1 44.8 3.2 9.6
1598 4 46.4 4.8 11.2
1599 4 48 3.2 9.6
1600 2 49.6 4.8 11.2
1601 4 0 6.4 9.6
1602 2 1.6 8 11.2
1603 4 3.2 6.4 9.6
1604 4 4.8 8 11.2
1605 3 6.4 6.4 9.6
1606 2 8 8 11.2
1607 4 9.6 6.4 9.6
1608 2 11.2 8 11.2
1609 4 12.8 6.4 9.6
1610 1 14.4 8 11.2
1611 3 16 6.4 9.6
1612 3 17.6 8 11.2
1613 4 19.2 6.4 9.6
1614 2 20.8 8 11.2
1615 2 22.4 6.4 9.6
1616 4 24 8 11.2
1617 4 25.6 6.4 9.6
1618 3 27.2 8 11.2
1619 3 28.8 6.4 9.6
1620 1 30.4 8 11.2
1621 2 32 6.4 9.6
1622 1 33.6 8 11.2