 # Bcc Mo oriented X=[100] Y=[010] Z=[001].
  
        8192  atoms
           4  atom types
 
      0.000000000000      51.200000000000  xlo xhi
      0.000000000000      51.200000000000  ylo yhi
      0.000000000000      51.200000000000  zlo zhi
 
 
 
Atoms # atomic

1 1 0.0 0.0 0.0
2 2 1.6 1.6 1.6
3 1 3.2 0.0 0.0
4 2 4.8 1.6 1.6
5 1 6.4 0.0 0.0
6 3 8.0 1.6 1.6
7 1 9.6 0.0 0.0
8 3 11.2 1.6 1.6
9 1 12.8 0.0 0.0
10 2 14.4 1.6 1.6
11 1 16.0 0.0 0.0
12 2 17.6 1.6 1.6
13 1 19.2 0.0 0.0
14 2 20.8 1.6 1.6
15 1 22.4 0.0 0.0
16 2 24.0 1.6 1.6
17 1 25.6 0.0 0.0
18 2 27.2 1.6 1.6
19 1 28.8 0.0 0.0
20 3 30.4 1.6 1.6
21 2 32.0 0.0 0.0
22 2 33.6 1.6 1.6
23 2 35.2 0.0 0.0
24 2 36.8 1.6 1.6
25 2 38.4 0.0 0.0
26 2 40.0 1.6 1.6
27 2 41.6 0.0 0.0
28 2 43.2 1.6 1.6
29 2 44.8 0.0 0.0
30 2 46.4 1.6 1.6
31 2 48.0 0.0 0.0
32 2 49.6 1.6 1.6
33 3 0.0 3.2 0.0
34 1 1.6 4.8 1.6
35 2 3.2 3.2 0.0
36 2 4.8 4.8 1.6
37 2 6.4 3.2 0.0
38 2 8.0 4.8 1.6
39 1 9.6 3.2 0.0
40 2 11.2 4.8 1.6
41 2 12.8 3.2 0.0
42 2 14.4 4.8 1.6
43 1 16.0 3.2 0.0
44 2 17.6 4.8 1.6
45 2 19.2 3.2 0.0
46 2 20.8 4.8 1.6
47 1 22.4 3.2 0.0
48 2 24.0 4.8 1.6
49 2 25.6 3.2 0.0
50 1 27.2 4.8 1.6
51 2 28.8 3.2 0.0
52 2 30.4 4.8 1.6
53 1 32.0 3.2 0.0
54 2 33.6 4.8 1.6
55 1 35.2 3.2 0.0
56 2 36.8 4.8 1.6
57 1 38.4 3.2 0.0
58 2 40.0 4.8 1.6
59 2 41.6 3.2 0.0
60 1 43.2 4.8 1.6
61 2 44.8 3.2 0.0
62 1 46.4 4.8 1.6
63 2 48.0 3.2 0.0
64 1 49.6 4.8 1.6
65 2 0.0 6.4 0.0
66 2 1.6 8.0 1.6
67 1 3.2 6.4 0.0
68 2 4.8 8.0 1.6
69 1 6.4 6.4 0.0
70 3 8.0 8.0 1.6
71 1 9.6 6.4 0.0
72 3 11.2 8.0 1.6
73 1 12.8 6.4 0.0
74 2 14.4 8.0 1.6
75 2 16.0 6.4 0.0
76 2 17.6 8.0 1.6
77 2 19.2 6.4 0.0
78 1 20.8 8.0 1.6
79 2 22.4 6.4 0.0
80 1 24.0 8.0 1.6
81 2 25.6 6.4 0.0
82 1 27.2 8.0 1.6
83 2 28.8 6.4 0.0
84 1 30.4 8.0 1.6
85 2 32.0 6.4 0.0
86 1 33.6 8.0 1.6
87 1 35.2 6.4 0.0
88 2 36.8 8.0 1.6
89 1 38.4 6.4 0.0
90 1 40.0 8.0 1.6
91 3 41.6 6.4 0.0
92 1 43.2 8.0 1.6
93 3 44.8 6.4 0.0
94 1 46.4 8.0 1.6
95 3 48.0 6.4 0.0
96 3 49.6 8.0 1.6
97 2 0.0 9.6 0.0
98 1 1.6 11.2 1.6
99 2 3.2 9.6 0.0
100 2 4.8 11.2 1.6
101 1 6.4 9.6 0.0
102 2 8.0 11.2 1.6
103 1 9.6 9.6 0.0
104 2 11.2 11.2 1.6
105 2 12.8 9.6 0.0
106 1 14.4 11.2 1.6
107 2 16.0 9.6 0.0
108 1 17.6 11.2 1.6
109 3 19.2 9.6 0.0
110 2 20.8 11.2 1.6
111 2 22.4 9.6 0.0
112 2 24.0 11.2 1.6
113 2 25.6 9.6 0.0
114 1 27.2 11.2 1.6
115 2 28.8 9.6 0.0
116 1 30.4 11.2 1.6
117 2 32.0 9.6 0.0
118 1 33.6 11.2 1.6
119 2 35.2 9.6 0.0
120 2 36.8 11.2 1.6
121 3 38.4 9.6 0.0
122 1 40.0 11.2 1.6
123 3 41.6 9.6 0.0
124 1 43.2 11.2 1.6
125 3 44.8 9.6 0.0
126 2 46.4 11.2 1.6
127 2 48.0 9.6 0.0
128 1 49.6 11.2 1.6
129 3 0.0 12.8 0.0
130 1 1.6 14.4 1.6
131 2 3.2 12.8 0.0
132 2 4.8 14.4 1.6
133 1 6.4 12.8 0.0
134 2 8.0 14.4 1.6
135 1 9.6 12.8 0.0
136 2 11.2 14.4 1.6
137 2 12.8 12.8 0.0
138 1 14.4 14.4 1.6
139 3 16.0 12.8 0.0
140 1 17.6 14.4 1.6
141 2 19.2 12.8 0.0
142 2 20.8 14.4 1.6
143 1 22.4 12.8 0.0
144 2 24.0 14.4 1.6
145 2 25.6 12.8 0.0
146 1 27.2 14.4 1.6
147 3 28.8 12.8 0.0
148 2 30.4 14.4 1.6
149 2 32.0 12.8 0.0
150 2 33.6 14.4 1.6
151 2 35.2 12.8 0.0
152 2 36.8 14.4 1.6
153 2 38.4 12.8 0.0
154 1 40.0 14.4 1.6
155 3 41.6 12.8 0.0
156 1 43.2 14.4 1.6
157 2 44.8 12.8 0.0
158 2 46.4 14.4 1.6
159 1 48.0 12.8 0.0
160 2 49.6 14.4 1.6
161 1 0.0 16.0 0.0
162 2 1.6 17.6 1.6
163 2 3.2 16.0 0.0
164 3 4.8 17.6 1.6
165 1 6.4 16.0 0.0
166 3 8.0 17.6 1.6
167 1 9.6 16.0 0.0
168 3 11.2 17.6 1.6
169 2 12.8 16.0 0.0
170 1 14.4 17.6 1.6
171 3 16.0 16.0 0.0
172 3 17.6 17.6 1.6
173 1 19.2 16.0 0.0
174 3 20.8 17.6 1.6
175 1 22.4 16.0 0.0
176 2 24.0 17.6 1.6
177 3 25.6 16.0 0.0
178 2 27.2 17.6 1.6
179 2 28.8 16.0 0.0
180 1 30.4 17.6 1.6
181 2 32.0 16.0 0.0
182 1 33.6 17.6 1.6
183 3 35.2 16.0 0.0
184 1 36.8 17.6 1.6
185 3 38.4 16.0 0.0
186 1 40.0 17.6 1.6
187 2 41.6 16.0 0.0
188 2 43.2 17.6 1.6
189 1 44.8 16.0 0.0
190 2 46.4 17.6 1.6
191 1 48.0 16.0 0.0
192 2 49.6 17.6 1.6
193 1 0.0 19.2 0.0
194 2 1.6 20.8 1.6
195 2 3.2 19.2 0.0
196 2 4.8 20.8 1.6
197 1 6.4 19.2 0.0
198 3 8.0 20.8 1.6
199 2 9.6 19.2 0.0
200 1 11.2 20.8 1.6
201 1 12.8 19.2 0.0
202 1 14.4 20.8 1.6
203 3 16.0 19.2 0.0
204 1 17.6 20.8 1.6
205 1 19.2 19.2 0.0
206 3 20.8 20.8 1.6
207 1 22.4 19.2 0.0
208 2 24.0 20.8 1.6
209 2 25.6 19.2 0.0
210 2 27.2 20.8 1.6
211 1 28.8 19.2 0.0
212 2 30.4 20.8 1.6
213 2 32.0 19.2 0.0
214 1 33.6 20.8 1.6
215 3 35.2 19.2 0.0
216 2 36.8 20.8 1.6
217 3 38.4 19.2 0.0
218 2 40.0 20.8 1.6
219 2 41.6 19.2 0.0
220 2 43.2 20.8 1.6
221 1 44.8 19.2 0.0
222 2 46.4 20.8 1.6
223 1 48.0 19.2 0.0
224 2 49.6 20.8 1.6
225 1 0.0 22.4 0.0
226 2 1.6 24.0 1.6
227 1 3.2 22.4 0.0
228 2 4.8 24.0 1.6
229 2 6.4 22.4 0.0
230 1 8.0 24.0 1.6
231 2 9.6 22.4 0.0
232 2 11.2 24.0 1.6
233 2 12.8 22.4 0.0
234 1 14.4 24.0 1.6
235 3 16.0 22.4 0.0
236 1 17.6 24.0 1.6
237 2 19.2 22.4 0.0
238 2 20.8 24.0 1.6
239 1 22.4 22.4 0.0
240 2 24.0 24.0 1.6
241 2 25.6 22.4 0.0
242 2 27.2 24.0 1.6
243 1 28.8 22.4 0.0
244 1 30.4 24.0 1.6
245 2 32.0 22.4 0.0
246 2 33.6 24.0 1.6
247 3 35.2 22.4 0.0
248 3 36.8 24.0 1.6
249 2 38.4 22.4 0.0
250 1 40.0 24.0 1.6
251 2 41.6 22.4 0.0
252 1 43.2 24.0 1.6
253 2 44.8 22.4 0.0
254 1 46.4 24.0 1.6
255 1 48.0 22.4 0.0
256 1 49.6 24.0 1.6
257 3 0.0 25.6 0.0
258 1 1.6 27.2 1.6
259 2 3.2 25.6 0.0
260 2 4.8 27.2 1.6
261 2 6.4 25.6 0.0
262 3 8.0 27.2 1.6
263 2 9.6 25.6 0.0
264 2 11.2 27.2 1.6
265 2 12.8 25.6 0.0
266 1 14.4 27.2 1.6
267 3 16.0 25.6 0.0
268 1 17.6 27.2 1.6
269 3 19.2 25.6 0.0
270 3 20.8 27.2 1.6
271 2 22.4 25.6 0.0
272 2 24.0 27.2 1.6
273 1 25.6 25.6 0.0
274 2 27.2 27.2 1.6
275 1 28.8 25.6 0.0
276 2 30.4 27.2 1.6
277 1 32.0 25.6 0.0
278 2 33.6 27.2 1.6
279 1 35.2 25.6 0.0
280 2 36.8 27.2 1.6
281 2 38.4 25.6 0.0
282 1 40.0 27.2 1.6
283 2 41.6 25.6 0.0
284 1 43.2 27.2 1.6
285 3 44.8 25.6 0.0
286 2 46.4 27.2 1.6
287 2 48.0 25.6 0.0
288 3 49.6 27.2 1.6
289 1 0.0 28.8 0.0
290 2 1.6 30.4 1.6
291 2 3.2 28.8 0.0
292 3 4.8 30.4 1.6
293 2 6.4 28.8 0.0
294 3 8.0 30.4 1.6
295 2 9.6 28.8 0.0
296 3 11.2 30.4 1.6
297 2 12.8 28.8 0.0
298 1 14.4 30.4 1.6
299 3 16.0 28.8 0.0
300 1 17.6 30.4 1.6
301 2 19.2 28.8 0.0
302 2 20.8 30.4 1.6
303 1 22.4 28.8 0.0
304 3 24.0 30.4 1.6
305 1 25.6 28.8 0.0
306 2 27.2 30.4 1.6
307 1 28.8 28.8 0.0
308 1 30.4 30.4 1.6
309 2 32.0 28.8 0.0
310 2 33.6 30.4 1.6
311 1 35.2 28.8 0.0
312 1 36.8 30.4 1.6
313 2 38.4 28.8 0.0
314 2 40.0 30.4 1.6
315 2 41.6 28.8 0.0
316 2 43.2 30.4 1.6
317 1 44.8 28.8 0.0
318 2 46.4 30.4 1.6
319 2 48.0 28.8 0.0
320 3 49.6 30.4 1.6
321 2 0.0 32.0 0.0
322 2 1.6 33.6 1.6
323 2 3.2 32.0 0.0
324 2 4.8 33.6 1.6
325 1 6.4 32.0 0.0
326 3 8.0 33.6 1.6
327 1 9.6 32.0 0.0
328 2 11.2 33.6 1.6
329 1 12.8 32.0 0.0
330 3 14.4 33.6 1.6
331 1 16.0 32.0 0.0
332 2 17.6 33.6 1.6
333 2 19.2 32.0 0.0
334 2 20.8 33.6 1.6
335 2 22.4 32.0 0.0
336 1 24.0 33.6 1.6
337 1 25.6 32.0 0.0
338 2 27.2 33.6 1.6
339 1 28.8 32.0 0.0
340 1 30.4 33.6 1.6
341 3 32.0 32.0 0.0
342 1 33.6 33.6 1.6
343 3 35.2 32.0 0.0
344 2 36.8 33.6 1.6
345 3 38.4 32.0 0.0
346 1 40.0 33.6 1.6
347 2 41.6 32.0 0.0
348 2 43.2 33.6 1.6
349 2 44.8 32.0 0.0
350 3 46.4 33.6 1.6
351 1 48.0 32.0 0.0
352 2 49.6 33.6 1.6
353 2 0.0 35.2 0.0
354 1 1.6 36.8 1.6
355 3 3.2 35.2 0.0
356 1 4.8 36.8 1.6
357 3 6.4 35.2 0.0
358 2 8.0 36.8 1.6
359 2 9.6 35.2 0.0
360 3 11.2 36.8 1.6
361 1 12.8 35.2 0.0
362 3 14.4 36.8 1.6
363 2 16.0 35.2 0.0
364 2 17.6 36.8 1.6
365 2 19.2 35.2 0.0
366 2 20.8 36.8 1.6
367 3 22.4 35.2 0.0
368 1 24.0 36.8 1.6
369 2 25.6 35.2 0.0
370 1 27.2 36.8 1.6
371 2 28.8 35.2 0.0
372 2 30.4 36.8 1.6
373 1 32.0 35.2 0.0
374 2 33.6 36.8 1.6
375 3 35.2 35.2 0.0
376 2 36.8 36.8 1.6
377 2 38.4 35.2 0.0
378 2 40.0 36.8 1.6
379 1 41.6 35.2 0.0
380 2 43.2 36.8 1.6
381 1 44.8 35.2 0.0
382 2 46.4 36.8 1.6
383 1 48.0 35.2 0.0
384 2 49.6 36.8 1.6
385 2 0.0 38.4 0.0
386 1 1.6 40.0 1.6
387 3 3.2 38.4 0.0
388 1 4.8 40.0 1.6
389 3 6.4 38.4 0.0
390 2 8.0 40.0 1.6
391 2 9.6 38.4 0.0
392 2 11.2 40.0 1.6
393 3 12.8 38.4 0.0
394 3 14.4 40.0 1.6
395 3 16.0 38.4 0.0
396 2 17.6 40.0 1.6
397 1 19.2 38.4 0.0
398 1 20.8 40.0 1.6
399 3 22.4 38.4 0.0
400 3 24.0 40.0 1.6
401 2 25.6 38.4 0.0
402 2 27.2 40.0 1.6
403 3 28.8 38.4 0.0
404 2 30.4 40.0 1.6
405 2 32.0 38.4 0.0
406 2 33.6 40.0 1.6
407 2 35.2 38.4 0.0
408 2 36.8 40.0 1.6
409 3 38.4 38.4 0.0
410 1 40.0 40.0 1.6
411 3 41.6 38.4 0.0
412 1 43.2 40.0 1.6
413 2 44.8 38.4 0.0
414 1 46.4 40.0 1.6
415 2 48.0 38.4 0.0
416 1 49.6 40.0 1.6
417 3 0.0 41.6 0.0
418 2 1.6 43.2 1.6
419 2 3.2 41.6 0.0
420 1 4.8 43.2 1.6
421 3 6.4 41.6 0.0
422 2 8.0 43.2 1.6
423 3 9.6 41.6 0.0
424 2 11.2 43.2 1.6
425 2 12.8 41.6 0.0
426 2 14.4 43.2 1.6
427 2 16.0 41.6 0.0
428 1 17.6 43.2 1.6
429 3 19.2 41.6 0.0
430 3 20.8 43.2 1.6
431 2 22.4 41.6 0.0
432 2 24.0 43.2 1.6
433 1 25.6 41.6 0.0
434 2 27.2 43.2 1.6
435 2 28.8 41.6 0.0
436 2 30.4 43.2 1.6
437 2 32.0 41.6 0.0
438 2 33.6 43.2 1.6
439 2 35.2 41.6 0.0
440 1 36.8 43.2 1.6
441 2 38.4 41.6 0.0
442 1 40.0 43.2 1.6
443 3 41.6 41.6 0.0
444 1 43.2 43.2 1.6
445 1 44.8 41.6 0.0
446 2 46.4 43.2 1.6
447 3 48.0 41.6 0.0
448 3 49.6 43.2 1.6
449 1 0.0 44.8 0.0
450 3 1.6 46.4 1.6
451 2 3.2 44.8 0.0
452 2 4.8 46.4 1.6
453 2 6.4 44.8 0.0
454 2 8.0 46.4 1.6
455 2 9.6 44.8 0.0
456 3 11.2 46.4 1.6
457 2 12.8 44.8 0.0
458 3 14.4 46.4 1.6
459 2 16.0 44.8 0.0
460 2 17.6 46.4 1.6
461 2 19.2 44.8 0.0
462 1 20.8 46.4 1.6
463 3 22.4 44.8 0.0
464 3 24.0 46.4 1.6
465 1 25.6 44.8 0.0
466 2 27.2 46.4 1.6
467 1 28.8 44.8 0.0
468 2 30.4 46.4 1.6
469 2 32.0 44.8 0.0
470 2 33.6 46.4 1.6
471 2 35.2 44.8 0.0
472 2 36.8 46.4 1.6
473 3 38.4 44.8 0.0
474 1 40.0 46.4 1.6
475 3 41.6 44.8 0.0
476 2 43.2 46.4 1.6
477 1 44.8 44.8 0.0
478 2 46.4 46.4 1.6
479 2 48.0 44.8 0.0
480 2 49.6 46.4 1.6
481 1 0.0 48.0 0.0
482 3 1.6 49.6 1.6
483 1 3.2 48.0 0.0
484 3 4.8 49.6 1.6
485 2 6.4 48.0 0.0
486 2 8.0 49.6 1.6
487 1 9.6 48.0 0.0
488 2 11.2 49.6 1.6
489 1 12.8 48.0 0.0
490 2 14.4 49.6 1.6
491 1 16.0 48.0 0.0
492 2 17.6 49.6 1.6
493 2 19.2 48.0 0.0
494 2 20.8 49.6 1.6
495 2 22.4 48.0 0.0
496 2 24.0 49.6 1.6
497 1 25.6 48.0 0.0
498 2 27.2 49.6 1.6
499 2 28.8 48.0 0.0
500 1 30.4 49.6 1.6
501 2 32.0 48.0 0.0
502 1 33.6 49.6 1.6
503 2 35.2 48.0 0.0
504 1 36.8 49.6 1.6
505 3 38.4 48.0 0.0
506 2 40.0 49.6 1.6
507 2 41.6 48.0 0.0
508 1 43.2 49.6 1.6
509 2 44.8 48.0 0.0
510 1 46.4 49.6 1.6
511 3 48.0 48.0 0.0
512 2 49.6 49.6 1.6
513 1 0.0 0.0 3.2
514 2 1.6 1.6 4.8
515 2 3.2 0.0 3.2
516 2 4.8 1.6 4.8
517 1 6.4 0.0 3.2
518 2 8.0 1.6 4.8
519 1 9.6 0.0 3.2
520 3 11.2 1.6 4.8
521 1 12.8 0.0 3.2
522 2 14.4 1.6 4.8
523 2 16.0 0.0 3.2
524 1 17.6 1.6 4.8
525 1 19.2 0.0 3.2
526 2 20.8 1.6 4.8
527 2 22.4 0.0 3.2
528 1 24.0 1.6 4.8
529 3 25.6 0.0 3.2
530 2 27.2 1.6 4.8
531 2 28.8 0.0 3.2
532 2 30.4 1.6 4.8
533 3 32.0 0.0 3.2
534 2 33.6 1.6 4.8
535 3 35.2 0.0 3.2
536 1 36.8 1.6 4.8
537 2 38.4 0.0 3.2
538 1 40.0 1.6 4.8
539 2 41.6 0.0 3.2
540 1 43.2 1.6 4.8
541 2 44.8 0.0 3.2
542 2 46.4 1.6 4.8
543 2 48.0 0.0 3.2
544 2 49.6 1.6 4.8
545 2 0.0 3.2 3.2
546 2 1.6 4.8 4.8
547 2 3.2 3.2 3.2
548 2 4.8 4.8 4.8
549 2 6.4 3.2 3.2
550 2 8.0 4.8 4.8
551 1 9.6 3.2 3.2
552 1 11.2 4.8 4.8
553 1 12.8 3.2 3.2
554 2 14.4 4.8 4.8
555 2 16.0 3.2 3.2
556 1 17.6 4.8 4.8
557 1 19.2 3.2 3.2
558 1 20.8 4.8 4.8
559 2 22.4 3.2 3.2
560 3 24.0 4.8 4.8
561 1 25.6 3.2 3.2
562 3 27.2 4.8 4.8
563 1 28.8 3.2 3.2
564 2 30.4 4.8 4.8
565 2 32.0 3.2 3.2
566 1 33.6 4.8 4.8
567 2 35.2 3.2 3.2
568 1 36.8 4.8 4.8
569 2 38.4 3.2 3.2
570 1 40.0 4.8 4.8
571 3 41.6 3.2 3.2
572 1 43.2 4.8 4.8
573 2 44.8 3.2 3.2
574 1 46.4 4.8 4.8
575 1 48.0 3.2 3.2
576 1 49.6 4.8 4.8
577 2 0.0 6.4 3.2
578 1 1.6 8.0 4.8
579 1 3.2 6.4 3.2
580 3 4.8 8.0 4.8
581 2 6.4 6.4 3.2
582 3 8.0 8.0 4.8
583 1 9.6 6.4 3.2
584 2 11.2 8.0 4.8
585 2 12.8 6.4 3.2
586 3 14.4 8.0 4.8
587 2 16.0 6.4 3.2
588 1 17.6 8.0 4.8
589 2 19.2 6.4 3.2
590 2 20.8 8.0 4.8
591 3 22.4 6.4 3.2
592 3 24.0 8.0 4.8
593 3 25.6 6.4 3.2
594 3 27.2 8.0 4.8
595 2 28.8 6.4 3.2
596 2 30.4 8.0 4.8
597 2 32.0 6.4 3.2
598 2 33.6 8.0 4.8
599 2 35.2 6.4 3.2
600 3 36.8 8.0 4.8
601 3 38.4 6.4 3.2
602 1 40.0 8.0 4.8
603 3 41.6 6.4 3.2
604 1 43.2 8.0 4.8
605 3 44.8 6.4 3.2
606 1 46.4 8.0 4.8
607 2 48.0 6.4 3.2
608 2 49.6 8.0 4.8
609 3 0.0 9.6 3.2
610 1 1.6 11.2 4.8
611 2 3.2 9.6 3.2
612 1 4.8 11.2 4.8
613 1 6.4 9.6 3.2
614 2 8.0 11.2 4.8
615 1 9.6 9.6 3.2
616 1 11.2 11.2 4.8
617 2 12.8 9.6 3.2
618 2 14.4 11.2 4.8
619 2 16.0 9.6 3.2
620 2 17.6 11.2 4.8
621 2 19.2 9.6 3.2
622 3 20.8 11.2 4.8
623 2 22.4 9.6 3.2
624 2 24.0 11.2 4.8
625 2 25.6 9.6 3.2
626 2 27.2 11.2 4.8
627 1 28.8 9.6 3.2
628 3 30.4 11.2 4.8
629 2 32.0 9.6 3.2
630 2 33.6 11.2 4.8
631 1 35.2 9.6 3.2
632 2 36.8 11.2 4.8
633 3 38.4 9.6 3.2
634 1 40.0 11.2 4.8
635 3 41.6 9.6 3.2
636 1 43.2 11.2 4.8
637 2 44.8 9.6 3.2
638 1 46.4 11.2 4.8
639 1 48.0 9.6 3.2
640 1 49.6 11.2 4.8
641 2 0.0 12.8 3.2
642 2 1.6 14.4 4.8
643 2 3.2 12.8 3.2
644 2 4.8 14.4 4.8
645 1 6.4 12.8 3.2
646 2 8.0 14.4 4.8
647 2 9.6 12.8 3.2
648 2 11.2 14.4 4.8
649 3 12.8 12.8 3.2
650 2 14.4 14.4 4.8
651 2 16.0 12.8 3.2
652 1 17.6 14.4 4.8
653 3 19.2 12.8 3.2
654 2 20.8 14.4 4.8
655 1 22.4 12.8 3.2
656 2 24.0 14.4 4.8
657 2 25.6 12.8 3.2
658 1 27.2 14.4 4.8
659 2 28.8 12.8 3.2
660 3 30.4 14.4 4.8
661 2 32.0 12.8 3.2
662 2 33.6 14.4 4.8
663 1 35.2 12.8 3.2
664 3 36.8 14.4 4.8
665 3 38.4 12.8 3.2
666 1 40.0 14.4 4.8
667 3 41.6 12.8 3.2
668 1 43.2 14.4 4.8
669 3 44.8 12.8 3.2
670 1 46.4 14.4 4.8
671 2 48.0 12.8 3.2
672 2 49.6 14.4 4.8
673 2 0.0 16.0 3.2
674 3 1.6 17.6 4.8
675 2 3.2 16.0 3.2
676 1 4.8 17.6 4.8
677 1 6.4 16.0 3.2
678 2 8.0 17.6 4.8
679 1 9.6 16.0 3.2
680 2 11.2 17.6 4.8
681 2 12.8 16.0 3.2
682 2 14.4 17.6 4.8
683 3 16.0 16.0 3.2
684 2 17.6 17.6 4.8
685 3 19.2 16.0 3.2
686 2 20.8 17.6 4.8
687 1 22.4 16.0 3.2
688 2 24.0 17.6 4.8
689 2 25.6 16.0 3.2
690 1 27.2 17.6 4.8
691 2 28.8 16.0 3.2
692 2 30.4 17.6 4.8
693 3 32.0 16.0 3.2
694 2 33.6 17.6 4.8
695 2 35.2 16.0 3.2
696 1 36.8 17.6 4.8
697 3 38.4 16.0 3.2
698 3 40.0 17.6 4.8
699 3 41.6 16.0 3.2
700 1 43.2 17.6 4.8
701 2 44.8 16.0 3.2
702 2 46.4 17.6 4.8
703 2 48.0 16.0 3.2
704 1 49.6 17.6 4.8
705 2 0.0 19.2 3.2
706 2 1.6 20.8 4.8
707 1 3.2 19.2 3.2
708 2 4.8 20.8 4.8
709 1 6.4 19.2 3.2
710 3 8.0 20.8 4.8
711 1 9.6 19.2 3.2
712 2 11.2 20.8 4.8
713 1 12.8 19.2 3.2
714 2 14.4 20.8 4.8
715 1 16.0 19.2 3.2
716 2 17.6 20.8 4.8
717 3 19.2 19.2 3.2
718 3 20.8 20.8 4.8
719 3 22.4 19.2 3.2
720 2 24.0 20.8 4.8
721 2 25.6 19.2 3.2
722 2 27.2 20.8 4.8
723 3 28.8 19.2 3.2
724 1 30.4 20.8 4.8
725 3 32.0 19.2 3.2
726 1 33.6 20.8 4.8
727 3 35.2 19.2 3.2
728 1 36.8 20.8 4.8
729 3 38.4 19.2 3.2
730 2 40.0 20.8 4.8
731 1 41.6 19.2 3.2
732 1 43.2 20.8 4.8
733 2 44.8 19.2 3.2
734 1 46.4 20.8 4.8
735 3 48.0 19.2 3.2
736 2 49.6 20.8 4.8
737 2 0.0 22.4 3.2
738 1 1.6 24.0 4.8
739 2 3.2 22.4 3.2
740 1 4.8 24.0 4.8
741 2 6.4 22.4 3.2
742 1 8.0 24.0 4.8
743 2 9.6 22.4 3.2
744 1 11.2 24.0 4.8
745 2 12.8 22.4 3.2
746 1 14.4 24.0 4.8
747 3 16.0 22.4 3.2
748 3 17.6 24.0 4.8
749 3 19.2 22.4 3.2
750 3 20.8 24.0 4.8
751 1 22.4 22.4 3.2
752 3 24.0 24.0 4.8
753 2 25.6 22.4 3.2
754 2 27.2 24.0 4.8
755 2 28.8 22.4 3.2
756 1 30.4 24.0 4.8
757 3 32.0 22.4 3.2
758 1 33.6 24.0 4.8
759 3 35.2 22.4 3.2
760 2 36.8 24.0 4.8
761 2 38.4 22.4 3.2
762 2 40.0 24.0 4.8
763 2 41.6 22.4 3.2
764 1 43.2 24.0 4.8
765 2 44.8 22.4 3.2
766 1 46.4 24.0 4.8
767 1 48.0 22.4 3.2
768 2 49.6 24.0 4.8
769 2 0.0 25.6 3.2
770 2 1.6 27.2 4.8
771 1 3.2 25.6 3.2
772 2 4.8 27.2 4.8
773 2 6.4 25.6 3.2
774 2 8.0 27.2 4.8
775 2 9.6 25.6 3.2
776 1 11.2 27.2 4.8
777 2 12.8 25.6 3.2
778 1 14.4 27.2 4.8
779 3 16.0 25.6 3.2
780 1 17.6 27.2 4.8
781 3 19.2 25.6 3.2
782 3 20.8 27.2 4.8
783 1 22.4 25.6 3.2
784 2 24.0 27.2 4.8
785 1 25.6 25.6 3.2
786 1 27.2 27.2 4.8
787 2 28.8 25.6 3.2
788 1 30.4 27.2 4.8
789 2 32.0 25.6 3.2
790 1 33.6 27.2 4.8
791 2 35.2 25.6 3.2
792 2 36.8 27.2 4.8
793 2 38.4 25.6 3.2
794 1 40.0 27.2 4.8
795 3 41.6 25.6 3.2
796 2 43.2 27.2 4.8
797 2 44.8 25.6 3.2
798 2 46.4 27.2 4.8
799 2 48.0 25.6 3.2
800 2 49.6 27.2 4.8
801 1 0.0 28.8 3.2
802 2 1.6 30.4 4.8
803 1 3.2 28.8 3.2
804 1 4.8 30.4 4.8
805 1 6.4 28.8 3.2
806 2 8.0 30.4 4.8
807 1 9.6 28.8 3.2
808 2 11.2 30.4 4.8
809 2 12.8 28.8 3.2
810 2 14.4 30.4 4.8
811 3 16.0 28.8 3.2
812 1 17.6 30.4 4.8
813 2 19.2 28.8 3.2
814 2 20.8 30.4 4.8
815 1 22.4 28.8 3.2
816 3 24.0 30.4 4.8
817 1 25.6 28.8 3.2
818 2 27.2 30.4 4.8
819 3 28.8 28.8 3.2
820 2 30.4 30.4 4.8
821 2 32.0 28.8 3.2
822 3 33.6 30.4 4.8
823 1 35.2 28.8 3.2
824 3 36.8 30.4 4.8
825 2 38.4 28.8 3.2
826 2 40.0 30.4 4.8
827 2 41.6 28.8 3.2
828 2 43.2 30.4 4.8
829 2 44.8 28.8 3.2
830 2 46.4 30.4 4.8
831 1 48.0 28.8 3.2
832 2 49.6 30.4 4.8
833 2 0.0 32.0 3.2
834 3 1.6 33.6 4.8
835 2 3.2 32.0 3.2
836 2 4.8 33.6 4.8
837 1 6.4 32.0 3.2
838 2 8.0 33.6 4.8
839 1 9.6 32.0 3.2
840 2 11.2 33.6 4.8
841 2 12.8 32.0 3.2
842 2 14.4 33.6 4.8
843 1 16.0 32.0 3.2
844 1 17.6 33.6 4.8
845 2 19.2 32.0 3.2
846 1 20.8 33.6 4.8
847 3 22.4 32.0 3.2
848 2 24.0 33.6 4.8
849 1 25.6 32.0 3.2
850 2 27.2 33.6 4.8
851 2 28.8 32.0 3.2
852 2 30.4 33.6 4.8
853 3 32.0 32.0 3.2
854 2 33.6 33.6 4.8
855 3 35.2 32.0 3.2
856 1 36.8 33.6 4.8
857 3 38.4 32.0 3.2
858 2 40.0 33.6 4.8
859 2 41.6 32.0 3.2
860 3 43.2 33.6 4.8
861 3 44.8 32.0 3.2
862 2 46.4 33.6 4.8
863 1 48.0 32.0 3.2
864 2 49.6 33.6 4.8
865 1 0.0 35.2 3.2
866 3 1.6 36.8 4.8
867 2 3.2 35.2 3.2
868 3 4.8 36.8 4.8
869 2 6.4 35.2 3.2
870 3 8.0 36.8 4.8
871 2 9.6 35.2 3.2
872 2 11.2 36.8 4.8
873 1 12.8 35.2 3.2
874 2 14.4 36.8 4.8
875 2 16.0 35.2 3.2
876 2 17.6 36.8 4.8
877 2 19.2 35.2 3.2
878 2 20.8 36.8 4.8
879 3 22.4 35.2 3.2
880 1 24.0 36.8 4.8
881 2 25.6 35.2 3.2
882 2 27.2 36.8 4.8
883 2 28.8 35.2 3.2
884 2 30.4 36.8 4.8
885 1 32.0 35.2 3.2
886 2 33.6 36.8 4.8
887 2 35.2 35.2 3.2
888 3 36.8 36.8 4.8
889 1 38.4 35.2 3.2
890 3 40.0 36.8 4.8
891 1 41.6 35.2 3.2
892 2 43.2 36.8 4.8
893 2 44.8 35.2 3.2
894 3 46.4 36.8 4.8
895 1 48.0 35.2 3.2
896 3 49.6 36.8 4.8
897 2 0.0 38.4 3.2
898 3 1.6 40.0 4.8
899 3 3.2 38.4 3.2
900 2 4.8 40.0 4.8
901 1 6.4 38.4 3.2
902 2 8.0 40.0 4.8
903 1 9.6 38.4 3.2
904 2 11.2 40.0 4.8
905 1 12.8 38.4 3.2
906 3 14.4 40.0 4.8
907 1 16.0 38.4 3.2
908 1 17.6 40.0 4.8
909 2 19.2 38.4 3.2
910 1 20.8 40.0 4.8
911 2 22.4 38.4 3.2
912 1 24.0 40.0 4.8
913 2 25.6 38.4 3.2
914 2 27.2 40.0 4.8
915 2 28.8 38.4 3.2
916 3 30.4 40.0 4.8
917 2 32.0 38.4 3.2
918 2 33.6 40.0 4.8
919 2 35.2 38.4 3.2
920 2 36.8 40.0 4.8
921 1 38.4 38.4 3.2
922 2 40.0 40.0 4.8
923 2 41.6 38.4 3.2
924 1 43.2 40.0 4.8
925 2 44.8 38.4 3.2
926 1 46.4 40.0 4.8
927 1 48.0 38.4 3.2
928 1 49.6 40.0 4.8
929 2 0.0 41.6 3.2
930 2 1.6 43.2 4.8
931 2 3.2 41.6 3.2
932 2 4.8 43.2 4.8
933 2 6.4 41.6 3.2
934 2 8.0 43.2 4.8
935 1 9.6 41.6 3.2
936 2 11.2 43.2 4.8
937 1 12.8 41.6 3.2
938 2 14.4 43.2 4.8
939 2 16.0 41.6 3.2
940 1 17.6 43.2 4.8
941 3 19.2 41.6 3.2
942 1 20.8 43.2 4.8
943 3 22.4 41.6 3.2
944 2 24.0 43.2 4.8
945 1 25.6 41.6 3.2
946 2 27.2 43.2 4.8
947 1 28.8 41.6 3.2
948 2 30.4 43.2 4.8
949 1 32.0 41.6 3.2
950 2 33.6 43.2 4.8
951 2 35.2 41.6 3.2
952 2 36.8 43.2 4.8
953 2 38.4 41.6 3.2
954 1 40.0 43.2 4.8
955 3 41.6 41.6 3.2
956 1 43.2 43.2 4.8
957 3 44.8 41.6 3.2
958 1 46.4 43.2 4.8
959 2 48.0 41.6 3.2
960 2 49.6 43.2 4.8
961 1 0.0 44.8 3.2
962 2 1.6 46.4 4.8
963 1 3.2 44.8 3.2
964 2 4.8 46.4 4.8
965 1 6.4 44.8 3.2
966 2 8.0 46.4 4.8
967 1 9.6 44.8 3.2
968 1 11.2 46.4 4.8
969 1 12.8 44.8 3.2
970 3 14.4 46.4 4.8
971 2 16.0 44.8 3.2
972 3 17.6 46.4 4.8
973 3 19.2 44.8 3.2
974 2 20.8 46.4 4.8
975 3 22.4 44.8 3.2
976 2 24.0 46.4 4.8
977 3 25.6 44.8 3.2
978 1 27.2 46.4 4.8
979 2 28.8 44.8 3.2
980 3 30.4 46.4 4.8
981 1 32.0 44.8 3.2
982 2 33.6 46.4 4.8
983 1 35.2 44.8 3.2
984 2 36.8 46.4 4.8
985 2 38.4 44.8 3.2
986 1 40.0 46.4 4.8
987 2 41.6 44.8 3.2
988 1 43.2 46.4 4.8
989 2 44.8 44.8 3.2
990 2 46.4 46.4 4.8
991 1 48.0 44.8 3.2
992 1 49.6 46.4 4.8
993 2 0.0 48.0 3.2
994 1 1.6 49.6 4.8
995 2 3.2 48.0 3.2
996 2 4.8 49.6 4.8
997 1 6.4 48.0 3.2
998 2 8.0 49.6 4.8
999 3 9.6 48.0 3.2
1000 2 11.2 49.6 4.8
1001 1 12.8 48.0 3.2
1002 1 14.4 49.6 4.8
1003 1 16.0 48.0 3.2
1004 2 17.6 49.6 4.8
1005 1 19.2 48.0 3.2
1006 2 20.8 49.6 4.8
1007 2 22.4 48.0 3.2
1008 3 24.0 49.6 4.8
1009 2 25.6 48.0 3.2
1010 2 27.2 49.6 4.8
1011 1 28.8 48.0 3.2
1012 3 30.4 49.6 4.8
1013 2 32.0 48.0 3.2
1014 1 33.6 49.6 4.8
1015 3 35.2 48.0 3.2
1016 1 36.8 49.6 4.8
1017 2 38.4 48.0 3.2
1018 2 40.0 49.6 4.8
1019 2 41.6 48.0 3.2
1020 1 43.2 49.6 4.8
1021 2 44.8 48.0 3.2
1022 1 46.4 49.6 4.8
1023 2 48.0 48.0 3.2
1024 3 49.6 49.6 4.8
1025 1 0.0 0.0 6.4
1026 2 1.6 1.6 8.0
1027 2 3.2 0.0 6.4
1028 2 4.8 1.6 8.0
1029 1 6.4 0.0 6.4
1030 1 8.0 1.6 8.0
1031 1 9.6 0.0 6.4
1032 3 11.2 1.6 8.0
1033 2 12.8 0.0 6.4
1034 2 14.4 1.6 8.0
1035 2 16.0 0.0 6.4
1036 2 17.6 1.6 8.0
1037 1 19.2 0.0 6.4
1038 2 20.8 1.6 8.0
1039 2 22.4 0.0 6.4
1040 2 24.0 1.6 8.0
1041 1 25.6 0.0 6.4
1042 2 27.2 1.6 8.0
1043 1 28.8 0.0 6.4
1044 2 30.4 1.6 8.0
1045 1 32.0 0.0 6.4
1046 2 33.6 1.6 8.0
1047 3 35.2 0.0 6.4
1048 2 36.8 1.6 8.0
1049 2 38.4 0.0 6.4
1050 2 40.0 1.6 8.0
1051 2 41.6 0.0 6.4
1052 2 43.2 1.6 8.0
1053 2 44.8 0.0 6.4
1054 3 46.4 1.6 8.0
1055 3 48.0 0.0 6.4
1056 3 49.6 1.6 8.0
1057 1 0.0 3.2 6.4
1058 3 1.6 4.8 8.0
1059 1 3.2 3.2 6.4
1060 2 4.8 4.8 8.0
1061 1 6.4 3.2 6.4
1062 2 8.0 4.8 8.0
1063 2 9.6 3.2 6.4
1064 2 11.2 4.8 8.0
1065 2 12.8 3.2 6.4
1066 2 14.4 4.8 8.0
1067 2 16.0 3.2 6.4
1068 2 17.6 4.8 8.0
1069 2 19.2 3.2 6.4
1070 1 20.8 4.8 8.0
1071 2 22.4 3.2 6.4
1072 2 24.0 4.8 8.0
1073 1 25.6 3.2 6.4
1074 1 27.2 4.8 8.0
1075 1 28.8 3.2 6.4
1076 2 30.4 4.8 8.0
1077 1 32.0 3.2 6.4
1078 2 33.6 4.8 8.0
1079 2 35.2 3.2 6.4
1080 2 36.8 4.8 8.0
1081 3 38.4 3.2 6.4
1082 2 40.0 4.8 8.0
1083 3 41.6 3.2 6.4
1084 1 43.2 4.8 8.0
1085 2 44.8 3.2 6.4
1086 2 46.4 4.8 8.0
1087 2 48.0 3.2 6.4
1088 2 49.6 4.8 8.0
1089 2 0.0 6.4 6.4
1090 3 1.6 8.0 8.0
1091 2 3.2 6.4 6.4
1092 3 4.8 8.0 8.0
1093 1 6.4 6.4 6.4
1094 1 8.0 8.0 8.0
1095 2 9.6 6.4 6.4
1096 1 11.2 8.0 8.0
1097 1 12.8 6.4 6.4
1098 1 14.4 8.0 8.0
1099 3 16.0 6.4 6.4
1100 1 17.6 8.0 8.0
1101 2 19.2 6.4 6.4
1102 1 20.8 8.0 8.0
1103 1 22.4 6.4 6.4
1104 2 24.0 8.0 8.0
1105 3 25.6 6.4 6.4
1106 1 27.2 8.0 8.0
1107 2 28.8 6.4 6.4
1108 1 30.4 8.0 8.0
1109 1 32.0 6.4 6.4
1110 2 33.6 8.0 8.0
1111 3 35.2 6.4 6.4
1112 2 36.8 8.0 8.0
1113 3 38.4 6.4 6.4
1114 2 40.0 8.0 8.0
1115 3 41.6 6.4 6.4
1116 1 43.2 8.0 8.0
1117 3 44.8 6.4 6.4
1118 2 46.4 8.0 8.0
1119 2 48.0 6.4 6.4
1120 2 49.6 8.0 8.0
1121 3 0.0 9.6 6.4
1122 2 1.6 11.2 8.0
1123 1 3.2 9.6 6.4
1124 2 4.8 11.2 8.0
1125 2 6.4 9.6 6.4
1126 1 8.0 11.2 8.0
1127 2 9.6 9.6 6.4
1128 1 11.2 11.2 8.0
1129 2 12.8 9.6 6.4
1130 2 14.4 11.2 8.0
1131 2 16.0 9.6 6.4
1132 2 17.6 11.2 8.0
1133 3 19.2 9.6 6.4
1134 1 20.8 11.2 8.0
1135 1 22.4 9.6 6.4
1136 2 24.0 11.2 8.0
1137 2 25.6 9.6 6.4
1138 1 27.2 11.2 8.0
1139 2 28.8 9.6 6.4
1140 1 30.4 11.2 8.0
1141 2 32.0 9.6 6.4
1142 2 33.6 11.2 8.0
1143 1 35.2 9.6 6.4
1144 3 36.8 11.2 8.0
1145 2 38.4 9.6 6.4
1146 2 40.0 11.2 8.0
1147 2 41.6 9.6 6.4
1148 2 43.2 11.2 8.0
1149 3 44.8 9.6 6.4
1150 3 46.4 11.2 8.0
1151 2 48.0 9.6 6.4
1152 3 49.6 11.2 8.0
1153 3 0.0 12.8 6.4
1154 3 1.6 14.4 8.0
1155 2 3.2 12.8 6.4
1156 2 4.8 14.4 8.0
1157 2 6.4 12.8 6.4
1158 1 8.0 14.4 8.0
1159 2 9.6 12.8 6.4
1160 2 11.2 14.4 8.0
1161 2 12.8 12.8 6.4
1162 2 14.4 14.4 8.0
1163 3 16.0 12.8 6.4
1164 3 17.6 14.4 8.0
1165 2 19.2 12.8 6.4
1166 3 20.8 14.4 8.0
1167 1 22.4 12.8 6.4
1168 2 24.0 14.4 8.0
1169 2 25.6 12.8 6.4
1170 2 27.2 14.4 8.0
1171 1 28.8 12.8 6.4
1172 3 30.4 14.4 8.0
1173 1 32.0 12.8 6.4
1174 2 33.6 14.4 8.0
1175 1 35.2 12.8 6.4
1176 2 36.8 14.4 8.0
1177 3 38.4 12.8 6.4
1178 1 40.0 14.4 8.0
1179 3 41.6 12.8 6.4
1180 1 43.2 14.4 8.0
1181 3 44.8 12.8 6.4
1182 1 46.4 14.4 8.0
1183 3 48.0 12.8 6.4
1184 1 49.6 14.4 8.0
1185 1 0.0 16.0 6.4
1186 2 1.6 17.6 8.0
1187 2 3.2 16.0 6.4
1188 1 4.8 17.6 8.0
1189 2 6.4 16.0 6.4
1190 1 8.0 17.6 8.0
1191 3 9.6 16.0 6.4
1192 1 11.2 17.6 8.0
1193 1 12.8 16.0 6.4
1194 3 14.4 17.6 8.0
1195 1 16.0 16.0 6.4
1196 3 17.6 17.6 8.0
1197 1 19.2 16.0 6.4
1198 2 20.8 17.6 8.0
1199 2 22.4 16.0 6.4
1200 2 24.0 17.6 8.0
1201 3 25.6 16.0 6.4
1202 1 27.2 17.6 8.0
1203 1 28.8 16.0 6.4
1204 1 30.4 17.6 8.0
1205 2 32.0 16.0 6.4
1206 1 33.6 17.6 8.0
1207 2 35.2 16.0 6.4
1208 1 36.8 17.6 8.0
1209 3 38.4 16.0 6.4
1210 2 40.0 17.6 8.0
1211 2 41.6 16.0 6.4
1212 1 43.2 17.6 8.0
1213 3 44.8 16.0 6.4
1214 3 46.4 17.6 8.0
1215 2 48.0 16.0 6.4
1216 2 49.6 17.6 8.0
1217 1 0.0 19.2 6.4
1218 3 1.6 20.8 8.0
1219 2 3.2 19.2 6.4
1220 2 4.8 20.8 8.0
1221 2 6.4 19.2 6.4
1222 2 8.0 20.8 8.0
1223 1 9.6 19.2 6.4
1224 2 11.2 20.8 8.0
1225 1 12.8 19.2 6.4
1226 2 14.4 20.8 8.0
1227 2 16.0 19.2 6.4
1228 2 17.6 20.8 8.0
1229 2 19.2 19.2 6.4
1230 3 20.8 20.8 8.0
1231 2 22.4 19.2 6.4
1232 2 24.0 20.8 8.0
1233 2 25.6 19.2 6.4
1234 2 27.2 20.8 8.0
1235 2 28.8 19.2 6.4
1236 1 30.4 20.8 8.0
1237 3 32.0 19.2 6.4
1238 2 33.6 20.8 8.0
1239 2 35.2 19.2 6.4
1240 1 36.8 20.8 8.0
1241 2 38.4 19.2 6.4
1242 2 40.0 20.8 8.0
1243 1 41.6 19.2 6.4
1244 2 43.2 20.8 8.0
1245 2 44.8 19.2 6.4
1246 2 46.4 20.8 8.0
1247 2 48.0 19.2 6.4
1248 2 49.6 20.8 8.0
1249 2 0.0 22.4 6.4
1250 1 1.6 24.0 8.0
1251 2 3.2 22.4 6.4
1252 2 4.8 24.0 8.0
1253 2 6.4 22.4 6.4
1254 3 8.0 24.0 8.0
1255 2 9.6 22.4 6.4
1256 2 11.2 24.0 8.0
1257 2 12.8 22.4 6.4
1258 2 14.4 24.0 8.0
1259 1 16.0 22.4 6.4
1260 2 17.6 24.0 8.0
1261 1 19.2 22.4 6.4
1262 3 20.8 24.0 8.0
1263 1 22.4 22.4 6.4
1264 2 24.0 24.0 8.0
1265 1 25.6 22.4 6.4
1266 3 27.2 24.0 8.0
1267 2 28.8 22.4 6.4
1268 2 30.4 24.0 8.0
1269 2 32.0 22.4 6.4
1270 3 33.6 24.0 8.0
1271 2 35.2 22.4 6.4
1272 1 36.8 24.0 8.0
1273 3 38.4 22.4 6.4
1274 1 40.0 24.0 8.0
1275 3 41.6 22.4 6.4
1276 2 43.2 24.0 8.0
1277 3 44.8 22.4 6.4
1278 3 46.4 24.0 8.0
1279 1 48.0 22.4 6.4
1280 2 49.6 24.0 8.0
1281 2 0.0 25.6 6.4
1282 2 1.6 27.2 8.0
1283 2 3.2 25.6 6.4
1284 3 4.8 27.2 8.0
1285 1 6.4 25.6 6.4
1286 3 8.0 27.2 8.0
1287 2 9.6 25.6 6.4
1288 3 11.2 27.2 8.0
1289 2 12.8 25.6 6.4
1290 2 14.4 27.2 8.0
1291 3 16.0 25.6 6.4
1292 1 17.6 27.2 8.0
1293 3 19.2 25.6 6.4
1294 2 20.8 27.2 8.0
1295 1 22.4 25.6 6.4
1296 3 24.0 27.2 8.0
1297 2 25.6 25.6 6.4
1298 2 27.2 27.2 8.0
1299 2 28.8 25.6 6.4
1300 1 30.4 27.2 8.0
1301 3 32.0 25.6 6.4
1302 1 33.6 27.2 8.0
1303 3 35.2 25.6 6.4
1304 1 36.8 27.2 8.0
1305 3 38.4 25.6 6.4
1306 1 40.0 27.2 8.0
1307 2 41.6 25.6 6.4
1308 1 43.2 27.2 8.0
1309 2 44.8 25.6 6.4
1310 2 46.4 27.2 8.0
1311 2 48.0 25.6 6.4
1312 2 49.6 27.2 8.0
1313 1 0.0 28.8 6.4
1314 3 1.6 30.4 8.0
1315 2 3.2 28.8 6.4
1316 2 4.8 30.4 8.0
1317 2 6.4 28.8 6.4
1318 2 8.0 30.4 8.0
1319 2 9.6 28.8 6.4
1320 2 11.2 30.4 8.0
1321 2 12.8 28.8 6.4
1322 2 14.4 30.4 8.0
1323 3 16.0 28.8 6.4
1324 1 17.6 30.4 8.0
1325 1 19.2 28.8 6.4
1326 2 20.8 30.4 8.0
1327 1 22.4 28.8 6.4
1328 3 24.0 30.4 8.0
1329 1 25.6 28.8 6.4
1330 3 27.2 30.4 8.0
1331 2 28.8 28.8 6.4
1332 3 30.4 30.4 8.0
1333 2 32.0 28.8 6.4
1334 1 33.6 30.4 8.0
1335 2 35.2 28.8 6.4
1336 2 36.8 30.4 8.0
1337 2 38.4 28.8 6.4
1338 2 40.0 30.4 8.0
1339 1 41.6 28.8 6.4
1340 2 43.2 30.4 8.0
1341 2 44.8 28.8 6.4
1342 2 46.4 30.4 8.0
1343 1 48.0 28.8 6.4
1344 3 49.6 30.4 8.0
1345 1 0.0 32.0 6.4
1346 3 1.6 33.6 8.0
1347 2 3.2 32.0 6.4
1348 2 4.8 33.6 8.0
1349 2 6.4 32.0 6.4
1350 1 8.0 33.6 8.0
1351 1 9.6 32.0 6.4
1352 2 11.2 33.6 8.0
1353 2 12.8 32.0 6.4
1354 2 14.4 33.6 8.0
1355 2 16.0 32.0 6.4
1356 2 17.6 33.6 8.0
1357 2 19.2 32.0 6.4
1358 2 20.8 33.6 8.0
1359 2 22.4 32.0 6.4
1360 2 24.0 33.6 8.0
1361 1 25.6 32.0 6.4
1362 2 27.2 33.6 8.0
1363 1 28.8 32.0 6.4
1364 2 30.4 33.6 8.0
1365 1 32.0 32.0 6.4
1366 2 33.6 33.6 8.0
1367 2 35.2 32.0 6.4
1368 2 36.8 33.6 8.0
1369 2 38.4 32.0 6.4
1370 3 40.0 33.6 8.0
1371 2 41.6 32.0 6.4
1372 3 43.2 33.6 8.0
1373 1 44.8 32.0 6.4
1374 3 46.4 33.6 8.0
1375 2 48.0 32.0 6.4
1376 2 49.6 33.6 8.0
1377 1 0.0 35.2 6.4
1378 2 1.6 36.8 8.0
1379 1 3.2 35.2 6.4
1380 2 4.8 36.8 8.0
1381 2 6.4 35.2 6.4
1382 2 8.0 36.8 8.0
1383 1 9.6 35.2 6.4
1384 2 11.2 36.8 8.0
1385 2 12.8 35.2 6.4
1386 1 14.4 36.8 8.0
1387 2 16.0 35.2 6.4
1388 1 17.6 36.8 8.0
1389 2 19.2 35.2 6.4
1390 1 20.8 36.8 8.0
1391 3 22.4 35.2 6.4
1392 3 24.0 36.8 8.0
1393 1 25.6 35.2 6.4
1394 3 27.2 36.8 8.0
1395 2 28.8 35.2 6.4
1396 1 30.4 36.8 8.0
1397 1 32.0 35.2 6.4
1398 2 33.6 36.8 8.0
1399 1 35.2 35.2 6.4
1400 2 36.8 36.8 8.0
1401 2 38.4 35.2 6.4
1402 2 40.0 36.8 8.0
1403 1 41.6 35.2 6.4
1404 2 43.2 36.8 8.0
1405 2 44.8 35.2 6.4
1406 2 46.4 36.8 8.0
1407 1 48.0 35.2 6.4
1408 2 49.6 36.8 8.0
1409 2 0.0 38.4 6.4
1410 3 1.6 40.0 8.0
1411 1 3.2 38.4 6.4
1412 3 4.8 40.0 8.0
1413 1 6.4 38.4 6.4
1414 2 8.0 40.0 8.0
1415 1 9.6 38.4 6.4
1416 2 11.2 40.0 8.0
1417 3 12.8 38.4 6.4
1418 1 14.4 40.0 8.0
1419 2 16.0 38.4 6.4
1420 1 17.6 40.0 8.0
1421 3 19.2 38.4 6.4
1422 3 20.8 40.0 8.0
1423 2 22.4 38.4 6.4
1424 2 24.0 40.0 8.0
1425 3 25.6 38.4 6.4
1426 1 27.2 40.0 8.0
1427 3 28.8 38.4 6.4
1428 1 30.4 40.0 8.0
1429 1 32.0 38.4 6.4
1430 2 33.6 40.0 8.0
1431 1 35.2 38.4 6.4
1432 2 36.8 40.0 8.0
1433 2 38.4 38.4 6.4
1434 1 40.0 40.0 8.0
1435 1 41.6 38.4 6.4
1436 1 43.2 40.0 8.0
1437 2 44.8 38.4 6.4
1438 2 46.4 40.0 8.0
1439 1 48.0 38.4 6.4
1440 1 49.6 40.0 8.0
1441 1 0.0 41.6 6.4
1442 2 1.6 43.2 8.0
1443 2 3.2 41.6 6.4
1444 2 4.8 43.2 8.0
1445 1 6.4 41.6 6.4
1446 2 8.0 43.2 8.0
1447 2 9.6 41.6 6.4
1448 2 11.2 43.2 8.0
1449 2 12.8 41.6 6.4
1450 2 14.4 43.2 8.0
1451 2 16.0 41.6 6.4
1452 1 17.6 43.2 8.0
1453 2 19.2 41.6 6.4
1454 1 20.8 43.2 8.0
1455 2 22.4 41.6 6.4
1456 2 24.0 43.2 8.0
1457 1 25.6 41.6 6.4
1458 1 27.2 43.2 8.0
1459 2 28.8 41.6 6.4
1460 1 30.4 43.2 8.0
1461 1 32.0 41.6 6.4
1462 1 33.6 43.2 8.0
1463 1 35.2 41.6 6.4
1464 2 36.8 43.2 8.0
1465 3 38.4 41.6 6.4
1466 1 40.0 43.2 8.0
1467 3 41.6 41.6 6.4
1468 2 43.2 43.2 8.0
1469 2 44.8 41.6 6.4
1470 3 46.4 43.2 8.0
1471 2 48.0 41.6 6.4
1472 2 49.6 43.2 8.0
1473 1 0.0 44.8 6.4
1474 2 1.6 46.4 8.0
1475 2 3.2 44.8 6.4
1476 3 4.8 46.4 8.0
1477 1 6.4 44.8 6.4
1478 3 8.0 46.4 8.0
1479 2 9.6 44.8 6.4
1480 2 11.2 46.4 8.0
1481 2 12.8 44.8 6.4
1482 3 14.4 46.4 8.0
1483 3 16.0 44.8 6.4
1484 1 17.6 46.4 8.0
1485 2 19.2 44.8 6.4
1486 1 20.8 46.4 8.0
1487 2 22.4 44.8 6.4
1488 2 24.0 46.4 8.0
1489 2 25.6 44.8 6.4
1490 2 27.2 46.4 8.0
1491 2 28.8 44.8 6.4
1492 2 30.4 46.4 8.0
1493 3 32.0 44.8 6.4
1494 2 33.6 46.4 8.0
1495 2 35.2 44.8 6.4
1496 2 36.8 46.4 8.0
1497 3 38.4 44.8 6.4
1498 2 40.0 46.4 8.0
1499 3 41.6 44.8 6.4
1500 2 43.2 46.4 8.0