 # Bcc Mo oriented X=[100] Y=[010] Z=[001].
  
        8192  atoms
           4  atom types
 
      0.000000000000      51.200000000000  xlo xhi
      0.000000000000      51.200000000000  ylo yhi
      0.000000000000      51.200000000000  zlo zhi
 
 
 
Atoms # atomic

1 2 0.0 0.0 0.0
2 2 1.6 1.6 1.6
3 1 3.2 0.0 0.0
4 3 4.8 1.6 1.6
5 3 6.4 0.0 0.0
6 3 8.0 1.6 1.6
7 3 9.6 0.0 0.0
8 2 11.2 1.6 1.6
9 3 12.8 0.0 0.0
10 3 14.4 1.6 1.6
11 2 16.0 0.0 0.0
12 3 17.6 1.6 1.6
13 3 19.2 0.0 0.0
14 3 20.8 1.6 1.6
15 3 22.4 0.0 0.0
16 1 24.0 1.6 1.6
17 2 25.6 0.0 0.0
18 2 27.2 1.6 1.6
19 2 28.8 0.0 0.0
20 2 30.4 1.6 1.6
21 3 32.0 0.0 0.0
22 1 33.6 1.6 1.6
23 2 35.2 0.0 0.0
24 1 36.8 1.6 1.6
25 2 38.4 0.0 0.0
26 3 40.0 1.6 1.6
27 3 41.6 0.0 0.0
28 2 43.2 1.6 1.6
29 3 44.8 0.0 0.0
30 3 46.4 1.6 1.6
31 3 48.0 0.0 0.0
32 2 49.6 1.6 1.6
33 3 0.0 3.2 0.0
34 3 1.6 4.8 1.6
35 3 3.2 3.2 0.0
36 2 4.8 4.8 1.6
37 2 6.4 3.2 0.0
38 2 8.0 4.8 1.6
39 3 9.6 3.2 0.0
40 3 11.2 4.8 1.6
41 3 12.8 3.2 0.0
42 3 14.4 4.8 1.6
43 2 16.0 3.2 0.0
44 2 17.6 4.8 1.6
45 3 19.2 3.2 0.0
46 2 20.8 4.8 1.6
47 3 22.4 3.2 0.0
48 2 24.0 4.8 1.6
49 2 25.6 3.2 0.0
50 2 27.2 4.8 1.6
51 2 28.8 3.2 0.0
52 3 30.4 4.8 1.6
53 2 32.0 3.2 0.0
54 1 33.6 4.8 1.6
55 2 35.2 3.2 0.0
56 1 36.8 4.8 1.6
57 3 38.4 3.2 0.0
58 1 40.0 4.8 1.6
59 2 41.6 3.2 0.0
60 1 43.2 4.8 1.6
61 2 44.8 3.2 0.0
62 2 46.4 4.8 1.6
63 3 48.0 3.2 0.0
64 3 49.6 4.8 1.6
65 1 0.0 6.4 0.0
66 3 1.6 8.0 1.6
67 1 3.2 6.4 0.0
68 2 4.8 8.0 1.6
69 2 6.4 6.4 0.0
70 3 8.0 8.0 1.6
71 3 9.6 6.4 0.0
72 3 11.2 8.0 1.6
73 3 12.8 6.4 0.0
74 2 14.4 8.0 1.6
75 2 16.0 6.4 0.0
76 3 17.6 8.0 1.6
77 2 19.2 6.4 0.0
78 3 20.8 8.0 1.6
79 3 22.4 6.4 0.0
80 3 24.0 8.0 1.6
81 2 25.6 6.4 0.0
82 3 27.2 8.0 1.6
83 2 28.8 6.4 0.0
84 2 30.4 8.0 1.6
85 3 32.0 6.4 0.0
86 1 33.6 8.0 1.6
87 2 35.2 6.4 0.0
88 1 36.8 8.0 1.6
89 2 38.4 6.4 0.0
90 1 40.0 8.0 1.6
91 3 41.6 6.4 0.0
92 2 43.2 8.0 1.6
93 2 44.8 6.4 0.0
94 2 46.4 8.0 1.6
95 2 48.0 6.4 0.0
96 3 49.6 8.0 1.6
97 1 0.0 9.6 0.0
98 2 1.6 11.2 1.6
99 3 3.2 9.6 0.0
100 3 4.8 11.2 1.6
101 1 6.4 9.6 0.0
102 3 8.0 11.2 1.6
103 3 9.6 9.6 0.0
104 3 11.2 11.2 1.6
105 2 12.8 9.6 0.0
106 2 14.4 11.2 1.6
107 3 16.0 9.6 0.0
108 3 17.6 11.2 1.6
109 2 19.2 9.6 0.0
110 3 20.8 11.2 1.6
111 3 22.4 9.6 0.0
112 2 24.0 11.2 1.6
113 2 25.6 9.6 0.0
114 3 27.2 11.2 1.6
115 3 28.8 9.6 0.0
116 3 30.4 11.2 1.6
117 3 32.0 9.6 0.0
118 2 33.6 11.2 1.6
119 2 35.2 9.6 0.0
120 3 36.8 11.2 1.6
121 2 38.4 9.6 0.0
122 2 40.0 11.2 1.6
123 3 41.6 9.6 0.0
124 1 43.2 11.2 1.6
125 2 44.8 9.6 0.0
126 1 46.4 11.2 1.6
127 3 48.0 9.6 0.0
128 3 49.6 11.2 1.6
129 2 0.0 12.8 0.0
130 2 1.6 14.4 1.6
131 3 3.2 12.8 0.0
132 3 4.8 14.4 1.6
133 2 6.4 12.8 0.0
134 3 8.0 14.4 1.6
135 3 9.6 12.8 0.0
136 3 11.2 14.4 1.6
137 2 12.8 12.8 0.0
138 1 14.4 14.4 1.6
139 1 16.0 12.8 0.0
140 1 17.6 14.4 1.6
141 2 19.2 12.8 0.0
142 2 20.8 14.4 1.6
143 3 22.4 12.8 0.0
144 2 24.0 14.4 1.6
145 3 25.6 12.8 0.0
146 3 27.2 14.4 1.6
147 2 28.8 12.8 0.0
148 3 30.4 14.4 1.6
149 2 32.0 12.8 0.0
150 2 33.6 14.4 1.6
151 3 35.2 12.8 0.0
152 2 36.8 14.4 1.6
153 3 38.4 12.8 0.0
154 2 40.0 14.4 1.6
155 3 41.6 12.8 0.0
156 2 43.2 14.4 1.6
157 3 44.8 12.8 0.0
158 2 46.4 14.4 1.6
159 3 48.0 12.8 0.0
160 2 49.6 14.4 1.6
161 2 0.0 16.0 0.0
162 3 1.6 17.6 1.6
163 3 3.2 16.0 0.0
164 2 4.8 17.6 1.6
165 3 6.4 16.0 0.0
166 3 8.0 17.6 1.6
167 2 9.6 16.0 0.0
168 2 11.2 17.6 1.6
169 3 12.8 16.0 0.0
170 2 14.4 17.6 1.6
171 3 16.0 16.0 0.0
172 3 17.6 17.6 1.6
173 2 19.2 16.0 0.0
174 3 20.8 17.6 1.6
175 2 22.4 16.0 0.0
176 3 24.0 17.6 1.6
177 3 25.6 16.0 0.0
178 3 27.2 17.6 1.6
179 2 28.8 16.0 0.0
180 3 30.4 17.6 1.6
181 2 32.0 16.0 0.0
182 3 33.6 17.6 1.6
183 2 35.2 16.0 0.0
184 3 36.8 17.6 1.6
185 3 38.4 16.0 0.0
186 3 40.0 17.6 1.6
187 3 41.6 16.0 0.0
188 2 43.2 17.6 1.6
189 3 44.8 16.0 0.0
190 3 46.4 17.6 1.6
191 2 48.0 16.0 0.0
192 2 49.6 17.6 1.6
193 3 0.0 19.2 0.0
194 2 1.6 20.8 1.6
195 3 3.2 19.2 0.0
196 2 4.8 20.8 1.6
197 3 6.4 19.2 0.0
198 3 8.0 20.8 1.6
199 3 9.6 19.2 0.0
200 2 11.2 20.8 1.6
201 3 12.8 19.2 0.0
202 2 14.4 20.8 1.6
203 2 16.0 19.2 0.0
204 2 17.6 20.8 1.6
205 3 19.2 19.2 0.0
206 2 20.8 20.8 1.6
207 3 22.4 19.2 0.0
208 3 24.0 20.8 1.6
209 3 25.6 19.2 0.0
210 3 27.2 20.8 1.6
211 2 28.8 19.2 0.0
212 3 30.4 20.8 1.6
213 1 32.0 19.2 0.0
214 1 33.6 20.8 1.6
215 3 35.2 19.2 0.0
216 2 36.8 20.8 1.6
217 3 38.4 19.2 0.0
218 3 40.0 20.8 1.6
219 3 41.6 19.2 0.0
220 2 43.2 20.8 1.6
221 2 44.8 19.2 0.0
222 3 46.4 20.8 1.6
223 2 48.0 19.2 0.0
224 3 49.6 20.8 1.6
225 3 0.0 22.4 0.0
226 3 1.6 24.0 1.6
227 1 3.2 22.4 0.0
228 2 4.8 24.0 1.6
229 2 6.4 22.4 0.0
230 3 8.0 24.0 1.6
231 3 9.6 22.4 0.0
232 1 11.2 24.0 1.6
233 2 12.8 22.4 0.0
234 1 14.4 24.0 1.6
235 1 16.0 22.4 0.0
236 2 17.6 24.0 1.6
237 2 19.2 22.4 0.0
238 1 20.8 24.0 1.6
239 2 22.4 22.4 0.0
240 2 24.0 24.0 1.6
241 3 25.6 22.4 0.0
242 2 27.2 24.0 1.6
243 1 28.8 22.4 0.0
244 3 30.4 24.0 1.6
245 2 32.0 22.4 0.0
246 3 33.6 24.0 1.6
247 3 35.2 22.4 0.0
248 2 36.8 24.0 1.6
249 3 38.4 22.4 0.0
250 2 40.0 24.0 1.6
251 2 41.6 22.4 0.0
252 2 43.2 24.0 1.6
253 3 44.8 22.4 0.0
254 3 46.4 24.0 1.6
255 2 48.0 22.4 0.0
256 3 49.6 24.0 1.6
257 3 0.0 25.6 0.0
258 3 1.6 27.2 1.6
259 3 3.2 25.6 0.0
260 2 4.8 27.2 1.6
261 2 6.4 25.6 0.0
262 2 8.0 27.2 1.6
263 2 9.6 25.6 0.0
264 2 11.2 27.2 1.6
265 3 12.8 25.6 0.0
266 3 14.4 27.2 1.6
267 3 16.0 25.6 0.0
268 3 17.6 27.2 1.6
269 3 19.2 25.6 0.0
270 2 20.8 27.2 1.6
271 2 22.4 25.6 0.0
272 3 24.0 27.2 1.6
273 3 25.6 25.6 0.0
274 3 27.2 27.2 1.6
275 3 28.8 25.6 0.0
276 2 30.4 27.2 1.6
277 2 32.0 25.6 0.0
278 2 33.6 27.2 1.6
279 2 35.2 25.6 0.0
280 1 36.8 27.2 1.6
281 3 38.4 25.6 0.0
282 3 40.0 27.2 1.6
283 3 41.6 25.6 0.0
284 3 43.2 27.2 1.6
285 3 44.8 25.6 0.0
286 3 46.4 27.2 1.6
287 3 48.0 25.6 0.0
288 3 49.6 27.2 1.6
289 2 0.0 28.8 0.0
290 3 1.6 30.4 1.6
291 3 3.2 28.8 0.0
292 2 4.8 30.4 1.6
293 3 6.4 28.8 0.0
294 3 8.0 30.4 1.6
295 2 9.6 28.8 0.0
296 2 11.2 30.4 1.6
297 2 12.8 28.8 0.0
298 3 14.4 30.4 1.6
299 3 16.0 28.8 0.0
300 2 17.6 30.4 1.6
301 1 19.2 28.8 0.0
302 2 20.8 30.4 1.6
303 2 22.4 28.8 0.0
304 1 24.0 30.4 1.6
305 3 25.6 28.8 0.0
306 2 27.2 30.4 1.6
307 2 28.8 28.8 0.0
308 2 30.4 30.4 1.6
309 2 32.0 28.8 0.0
310 3 33.6 30.4 1.6
311 2 35.2 28.8 0.0
312 3 36.8 30.4 1.6
313 1 38.4 28.8 0.0
314 1 40.0 30.4 1.6
315 2 41.6 28.8 0.0
316 3 43.2 30.4 1.6
317 1 44.8 28.8 0.0
318 3 46.4 30.4 1.6
319 3 48.0 28.8 0.0
320 2 49.6 30.4 1.6
321 3 0.0 32.0 0.0
322 3 1.6 33.6 1.6
323 2 3.2 32.0 0.0
324 2 4.8 33.6 1.6
325 3 6.4 32.0 0.0
326 2 8.0 33.6 1.6
327 3 9.6 32.0 0.0
328 3 11.2 33.6 1.6
329 1 12.8 32.0 0.0
330 2 14.4 33.6 1.6
331 2 16.0 32.0 0.0
332 2 17.6 33.6 1.6
333 2 19.2 32.0 0.0
334 3 20.8 33.6 1.6
335 2 22.4 32.0 0.0
336 3 24.0 33.6 1.6
337 3 25.6 32.0 0.0
338 2 27.2 33.6 1.6
339 2 28.8 32.0 0.0
340 2 30.4 33.6 1.6
341 3 32.0 32.0 0.0
342 3 33.6 33.6 1.6
343 3 35.2 32.0 0.0
344 3 36.8 33.6 1.6
345 3 38.4 32.0 0.0
346 1 40.0 33.6 1.6
347 3 41.6 32.0 0.0
348 3 43.2 33.6 1.6
349 2 44.8 32.0 0.0
350 3 46.4 33.6 1.6
351 2 48.0 32.0 0.0
352 2 49.6 33.6 1.6
353 1 0.0 35.2 0.0
354 2 1.6 36.8 1.6
355 3 3.2 35.2 0.0
356 3 4.8 36.8 1.6
357 2 6.4 35.2 0.0
358 3 8.0 36.8 1.6
359 3 9.6 35.2 0.0
360 3 11.2 36.8 1.6
361 3 12.8 35.2 0.0
362 2 14.4 36.8 1.6
363 1 16.0 35.2 0.0
364 3 17.6 36.8 1.6
365 2 19.2 35.2 0.0
366 2 20.8 36.8 1.6
367 3 22.4 35.2 0.0
368 3 24.0 36.8 1.6
369 3 25.6 35.2 0.0
370 2 27.2 36.8 1.6
371 1 28.8 35.2 0.0
372 3 30.4 36.8 1.6
373 3 32.0 35.2 0.0
374 3 33.6 36.8 1.6
375 1 35.2 35.2 0.0
376 1 36.8 36.8 1.6
377 2 38.4 35.2 0.0
378 2 40.0 36.8 1.6
379 3 41.6 35.2 0.0
380 3 43.2 36.8 1.6
381 3 44.8 35.2 0.0
382 3 46.4 36.8 1.6
383 1 48.0 35.2 0.0
384 3 49.6 36.8 1.6
385 3 0.0 38.4 0.0
386 3 1.6 40.0 1.6
387 3 3.2 38.4 0.0
388 3 4.8 40.0 1.6
389 3 6.4 38.4 0.0
390 1 8.0 40.0 1.6
391 3 9.6 38.4 0.0
392 3 11.2 40.0 1.6
393 3 12.8 38.4 0.0
394 2 14.4 40.0 1.6
395 3 16.0 38.4 0.0
396 1 17.6 40.0 1.6
397 2 19.2 38.4 0.0
398 1 20.8 40.0 1.6
399 3 22.4 38.4 0.0
400 3 24.0 40.0 1.6
401 3 25.6 38.4 0.0
402 3 27.2 40.0 1.6
403 2 28.8 38.4 0.0
404 2 30.4 40.0 1.6
405 2 32.0 38.4 0.0
406 3 33.6 40.0 1.6
407 2 35.2 38.4 0.0
408 2 36.8 40.0 1.6
409 2 38.4 38.4 0.0
410 3 40.0 40.0 1.6
411 2 41.6 38.4 0.0
412 2 43.2 40.0 1.6
413 2 44.8 38.4 0.0
414 2 46.4 40.0 1.6
415 3 48.0 38.4 0.0
416 2 49.6 40.0 1.6
417 3 0.0 41.6 0.0
418 1 1.6 43.2 1.6
419 3 3.2 41.6 0.0
420 3 4.8 43.2 1.6
421 3 6.4 41.6 0.0
422 2 8.0 43.2 1.6
423 3 9.6 41.6 0.0
424 3 11.2 43.2 1.6
425 3 12.8 41.6 0.0
426 2 14.4 43.2 1.6
427 2 16.0 41.6 0.0
428 1 17.6 43.2 1.6
429 1 19.2 41.6 0.0
430 2 20.8 43.2 1.6
431 2 22.4 41.6 0.0
432 3 24.0 43.2 1.6
433 2 25.6 41.6 0.0
434 2 27.2 43.2 1.6
435 3 28.8 41.6 0.0
436 3 30.4 43.2 1.6
437 1 32.0 41.6 0.0
438 2 33.6 43.2 1.6
439 2 35.2 41.6 0.0
440 2 36.8 43.2 1.6
441 2 38.4 41.6 0.0
442 3 40.0 43.2 1.6
443 3 41.6 41.6 0.0
444 3 43.2 43.2 1.6
445 2 44.8 41.6 0.0
446 3 46.4 43.2 1.6
447 3 48.0 41.6 0.0
448 3 49.6 43.2 1.6
449 3 0.0 44.8 0.0
450 3 1.6 46.4 1.6
451 2 3.2 44.8 0.0
452 3 4.8 46.4 1.6
453 2 6.4 44.8 0.0
454 2 8.0 46.4 1.6
455 3 9.6 44.8 0.0
456 2 11.2 46.4 1.6
457 2 12.8 44.8 0.0
458 2 14.4 46.4 1.6
459 3 16.0 44.8 0.0
460 3 17.6 46.4 1.6
461 2 19.2 44.8 0.0
462 3 20.8 46.4 1.6
463 3 22.4 44.8 0.0
464 3 24.0 46.4 1.6
465 2 25.6 44.8 0.0
466 3 27.2 46.4 1.6
467 1 28.8 44.8 0.0
468 2 30.4 46.4 1.6
469 3 32.0 44.8 0.0
470 3 33.6 46.4 1.6
471 3 35.2 44.8 0.0
472 1 36.8 46.4 1.6
473 2 38.4 44.8 0.0
474 1 40.0 46.4 1.6
475 3 41.6 44.8 0.0
476 2 43.2 46.4 1.6
477 2 44.8 44.8 0.0
478 3 46.4 46.4 1.6
479 1 48.0 44.8 0.0
480 2 49.6 46.4 1.6
481 3 0.0 48.0 0.0
482 3 1.6 49.6 1.6
483 3 3.2 48.0 0.0
484 3 4.8 49.6 1.6
485 2 6.4 48.0 0.0
486 3 8.0 49.6 1.6
487 3 9.6 48.0 0.0
488 3 11.2 49.6 1.6
489 3 12.8 48.0 0.0
490 3 14.4 49.6 1.6
491 3 16.0 48.0 0.0
492 3 17.6 49.6 1.6
493 1 19.2 48.0 0.0
494 3 20.8 49.6 1.6
495 2 22.4 48.0 0.0
496 3 24.0 49.6 1.6
497 3 25.6 48.0 0.0
498 2 27.2 49.6 1.6
499 3 28.8 48.0 0.0
500 2 30.4 49.6 1.6
501 2 32.0 48.0 0.0
502 2 33.6 49.6 1.6
503 2 35.2 48.0 0.0
504 3 36.8 49.6 1.6
505 3 38.4 48.0 0.0
506 2 40.0 49.6 1.6
507 2 41.6 48.0 0.0
508 3 43.2 49.6 1.6
509 3 44.8 48.0 0.0
510 3 46.4 49.6 1.6
511 3 48.0 48.0 0.0
512 2 49.6 49.6 1.6
513 2 0.0 0.0 3.2
514 1 1.6 1.6 4.8
515 3 3.2 0.0 3.2
516 3 4.8 1.6 4.8
517 2 6.4 0.0 3.2
518 3 8.0 1.6 4.8
519 2 9.6 0.0 3.2
520 2 11.2 1.6 4.8
521 2 12.8 0.0 3.2
522 3 14.4 1.6 4.8
523 3 16.0 0.0 3.2
524 3 17.6 1.6 4.8
525 1 19.2 0.0 3.2
526 3 20.8 1.6 4.8
527 1 22.4 0.0 3.2
528 3 24.0 1.6 4.8
529 2 25.6 0.0 3.2
530 3 27.2 1.6 4.8
531 3 28.8 0.0 3.2
532 3 30.4 1.6 4.8
533 1 32.0 0.0 3.2
534 3 33.6 1.6 4.8
535 3 35.2 0.0 3.2
536 2 36.8 1.6 4.8
537 3 38.4 0.0 3.2
538 1 40.0 1.6 4.8
539 2 41.6 0.0 3.2
540 1 43.2 1.6 4.8
541 3 44.8 0.0 3.2
542 3 46.4 1.6 4.8
543 2 48.0 0.0 3.2
544 2 49.6 1.6 4.8
545 2 0.0 3.2 3.2
546 1 1.6 4.8 4.8
547 2 3.2 3.2 3.2
548 2 4.8 4.8 4.8
549 2 6.4 3.2 3.2
550 3 8.0 4.8 4.8
551 2 9.6 3.2 3.2
552 2 11.2 4.8 4.8
553 3 12.8 3.2 3.2
554 2 14.4 4.8 4.8
555 3 16.0 3.2 3.2
556 3 17.6 4.8 4.8
557 3 19.2 3.2 3.2
558 2 20.8 4.8 4.8
559 2 22.4 3.2 3.2
560 2 24.0 4.8 4.8
561 3 25.6 3.2 3.2
562 3 27.2 4.8 4.8
563 3 28.8 3.2 3.2
564 2 30.4 4.8 4.8
565 3 32.0 3.2 3.2
566 1 33.6 4.8 4.8
567 2 35.2 3.2 3.2
568 2 36.8 4.8 4.8
569 3 38.4 3.2 3.2
570 2 40.0 4.8 4.8
571 3 41.6 3.2 3.2
572 3 43.2 4.8 4.8
573 2 44.8 3.2 3.2
574 3 46.4 4.8 4.8
575 3 48.0 3.2 3.2
576 1 49.6 4.8 4.8
577 3 0.0 6.4 3.2
578 2 1.6 8.0 4.8
579 2 3.2 6.4 3.2
580 2 4.8 8.0 4.8
581 3 6.4 6.4 3.2
582 2 8.0 8.0 4.8
583 1 9.6 6.4 3.2
584 3 11.2 8.0 4.8
585 3 12.8 6.4 3.2
586 2 14.4 8.0 4.8
587 2 16.0 6.4 3.2
588 3 17.6 8.0 4.8
589 2 19.2 6.4 3.2
590 1 20.8 8.0 4.8
591 3 22.4 6.4 3.2
592 1 24.0 8.0 4.8
593 2 25.6 6.4 3.2
594 3 27.2 8.0 4.8
595 2 28.8 6.4 3.2
596 3 30.4 8.0 4.8
597 3 32.0 6.4 3.2
598 1 33.6 8.0 4.8
599 1 35.2 6.4 3.2
600 3 36.8 8.0 4.8
601 2 38.4 6.4 3.2
602 3 40.0 8.0 4.8
603 1 41.6 6.4 3.2
604 1 43.2 8.0 4.8
605 3 44.8 6.4 3.2
606 2 46.4 8.0 4.8
607 3 48.0 6.4 3.2
608 3 49.6 8.0 4.8
609 2 0.0 9.6 3.2
610 3 1.6 11.2 4.8
611 2 3.2 9.6 3.2
612 3 4.8 11.2 4.8
613 3 6.4 9.6 3.2
614 1 8.0 11.2 4.8
615 3 9.6 9.6 3.2
616 2 11.2 11.2 4.8
617 3 12.8 9.6 3.2
618 2 14.4 11.2 4.8
619 2 16.0 9.6 3.2
620 3 17.6 11.2 4.8
621 1 19.2 9.6 3.2
622 2 20.8 11.2 4.8
623 3 22.4 9.6 3.2
624 2 24.0 11.2 4.8
625 3 25.6 9.6 3.2
626 2 27.2 11.2 4.8
627 3 28.8 9.6 3.2
628 2 30.4 11.2 4.8
629 3 32.0 9.6 3.2
630 3 33.6 11.2 4.8
631 3 35.2 9.6 3.2
632 3 36.8 11.2 4.8
633 2 38.4 9.6 3.2
634 2 40.0 11.2 4.8
635 3 41.6 9.6 3.2
636 2 43.2 11.2 4.8
637 3 44.8 9.6 3.2
638 2 46.4 11.2 4.8
639 1 48.0 9.6 3.2
640 3 49.6 11.2 4.8
641 2 0.0 12.8 3.2
642 3 1.6 14.4 4.8
643 2 3.2 12.8 3.2
644 2 4.8 14.4 4.8
645 2 6.4 12.8 3.2
646 2 8.0 14.4 4.8
647 2 9.6 12.8 3.2
648 2 11.2 14.4 4.8
649 3 12.8 12.8 3.2
650 3 14.4 14.4 4.8
651 2 16.0 12.8 3.2
652 3 17.6 14.4 4.8
653 3 19.2 12.8 3.2
654 3 20.8 14.4 4.8
655 1 22.4 12.8 3.2
656 3 24.0 14.4 4.8
657 1 25.6 12.8 3.2
658 1 27.2 14.4 4.8
659 3 28.8 12.8 3.2
660 2 30.4 14.4 4.8
661 3 32.0 12.8 3.2
662 3 33.6 14.4 4.8
663 3 35.2 12.8 3.2
664 3 36.8 14.4 4.8
665 3 38.4 12.8 3.2
666 3 40.0 14.4 4.8
667 3 41.6 12.8 3.2
668 3 43.2 14.4 4.8
669 2 44.8 12.8 3.2
670 3 46.4 14.4 4.8
671 3 48.0 12.8 3.2
672 3 49.6 14.4 4.8
673 3 0.0 16.0 3.2
674 3 1.6 17.6 4.8
675 2 3.2 16.0 3.2
676 1 4.8 17.6 4.8
677 2 6.4 16.0 3.2
678 2 8.0 17.6 4.8
679 1 9.6 16.0 3.2
680 2 11.2 17.6 4.8
681 3 12.8 16.0 3.2
682 2 14.4 17.6 4.8
683 2 16.0 16.0 3.2
684 3 17.6 17.6 4.8
685 2 19.2 16.0 3.2
686 2 20.8 17.6 4.8
687 3 22.4 16.0 3.2
688 2 24.0 17.6 4.8
689 2 25.6 16.0 3.2
690 3 27.2 17.6 4.8
691 2 28.8 16.0 3.2
692 2 30.4 17.6 4.8
693 2 32.0 16.0 3.2
694 3 33.6 17.6 4.8
695 2 35.2 16.0 3.2
696 2 36.8 17.6 4.8
697 3 38.4 16.0 3.2
698 2 40.0 17.6 4.8
699 3 41.6 16.0 3.2
700 3 43.2 17.6 4.8
701 3 44.8 16.0 3.2
702 1 46.4 17.6 4.8
703 2 48.0 16.0 3.2
704 1 49.6 17.6 4.8
705 1 0.0 19.2 3.2
706 2 1.6 20.8 4.8
707 1 3.2 19.2 3.2
708 2 4.8 20.8 4.8
709 2 6.4 19.2 3.2
710 3 8.0 20.8 4.8
711 3 9.6 19.2 3.2
712 2 11.2 20.8 4.8
713 2 12.8 19.2 3.2
714 1 14.4 20.8 4.8
715 3 16.0 19.2 3.2
716 2 17.6 20.8 4.8
717 3 19.2 19.2 3.2
718 3 20.8 20.8 4.8
719 3 22.4 19.2 3.2
720 3 24.0 20.8 4.8
721 2 25.6 19.2 3.2
722 2 27.2 20.8 4.8
723 2 28.8 19.2 3.2
724 1 30.4 20.8 4.8
725 2 32.0 19.2 3.2
726 2 33.6 20.8 4.8
727 3 35.2 19.2 3.2
728 2 36.8 20.8 4.8
729 3 38.4 19.2 3.2
730 3 40.0 20.8 4.8
731 1 41.6 19.2 3.2
732 2 43.2 20.8 4.8
733 3 44.8 19.2 3.2
734 2 46.4 20.8 4.8
735 1 48.0 19.2 3.2
736 3 49.6 20.8 4.8
737 3 0.0 22.4 3.2
738 2 1.6 24.0 4.8
739 3 3.2 22.4 3.2
740 1 4.8 24.0 4.8
741 2 6.4 22.4 3.2
742 3 8.0 24.0 4.8
743 3 9.6 22.4 3.2
744 3 11.2 24.0 4.8
745 3 12.8 22.4 3.2
746 3 14.4 24.0 4.8
747 2 16.0 22.4 3.2
748 3 17.6 24.0 4.8
749 3 19.2 22.4 3.2
750 3 20.8 24.0 4.8
751 2 22.4 22.4 3.2
752 3 24.0 24.0 4.8
753 3 25.6 22.4 3.2
754 3 27.2 24.0 4.8
755 2 28.8 22.4 3.2
756 3 30.4 24.0 4.8
757 3 32.0 22.4 3.2
758 2 33.6 24.0 4.8
759 2 35.2 22.4 3.2
760 3 36.8 24.0 4.8
761 3 38.4 22.4 3.2
762 1 40.0 24.0 4.8
763 2 41.6 22.4 3.2
764 2 43.2 24.0 4.8
765 2 44.8 22.4 3.2
766 3 46.4 24.0 4.8
767 3 48.0 22.4 3.2
768 2 49.6 24.0 4.8
769 3 0.0 25.6 3.2
770 2 1.6 27.2 4.8
771 2 3.2 25.6 3.2
772 3 4.8 27.2 4.8
773 1 6.4 25.6 3.2
774 2 8.0 27.2 4.8
775 3 9.6 25.6 3.2
776 3 11.2 27.2 4.8
777 2 12.8 25.6 3.2
778 2 14.4 27.2 4.8
779 1 16.0 25.6 3.2
780 2 17.6 27.2 4.8
781 3 19.2 25.6 3.2
782 3 20.8 27.2 4.8
783 2 22.4 25.6 3.2
784 2 24.0 27.2 4.8
785 2 25.6 25.6 3.2
786 2 27.2 27.2 4.8
787 3 28.8 25.6 3.2
788 2 30.4 27.2 4.8
789 2 32.0 25.6 3.2
790 2 33.6 27.2 4.8
791 2 35.2 25.6 3.2
792 3 36.8 27.2 4.8
793 2 38.4 25.6 3.2
794 2 40.0 27.2 4.8
795 1 41.6 25.6 3.2
796 2 43.2 27.2 4.8
797 2 44.8 25.6 3.2
798 3 46.4 27.2 4.8
799 2 48.0 25.6 3.2
800 3 49.6 27.2 4.8
801 3 0.0 28.8 3.2
802 2 1.6 30.4 4.8
803 3 3.2 28.8 3.2
804 3 4.8 30.4 4.8
805 2 6.4 28.8 3.2
806 2 8.0 30.4 4.8
807 3 9.6 28.8 3.2
808 2 11.2 30.4 4.8
809 2 12.8 28.8 3.2
810 2 14.4 30.4 4.8
811 3 16.0 28.8 3.2
812 2 17.6 30.4 4.8
813 3 19.2 28.8 3.2
814 1 20.8 30.4 4.8
815 2 22.4 28.8 3.2
816 2 24.0 30.4 4.8
817 3 25.6 28.8 3.2
818 2 27.2 30.4 4.8
819 2 28.8 28.8 3.2
820 3 30.4 30.4 4.8
821 3 32.0 28.8 3.2
822 3 33.6 30.4 4.8
823 2 35.2 28.8 3.2
824 3 36.8 30.4 4.8
825 2 38.4 28.8 3.2
826 3 40.0 30.4 4.8
827 2 41.6 28.8 3.2
828 3 43.2 30.4 4.8
829 3 44.8 28.8 3.2
830 3 46.4 30.4 4.8
831 3 48.0 28.8 3.2
832 3 49.6 30.4 4.8
833 3 0.0 32.0 3.2
834 3 1.6 33.6 4.8
835 2 3.2 32.0 3.2
836 3 4.8 33.6 4.8
837 3 6.4 32.0 3.2
838 3 8.0 33.6 4.8
839 3 9.6 32.0 3.2
840 3 11.2 33.6 4.8
841 3 12.8 32.0 3.2
842 3 14.4 33.6 4.8
843 3 16.0 32.0 3.2
844 2 17.6 33.6 4.8
845 2 19.2 32.0 3.2
846 3 20.8 33.6 4.8
847 2 22.4 32.0 3.2
848 3 24.0 33.6 4.8
849 3 25.6 32.0 3.2
850 3 27.2 33.6 4.8
851 2 28.8 32.0 3.2
852 3 30.4 33.6 4.8
853 3 32.0 32.0 3.2
854 3 33.6 33.6 4.8
855 2 35.2 32.0 3.2
856 3 36.8 33.6 4.8
857 3 38.4 32.0 3.2
858 3 40.0 33.6 4.8
859 3 41.6 32.0 3.2
860 3 43.2 33.6 4.8
861 3 44.8 32.0 3.2
862 3 46.4 33.6 4.8
863 1 48.0 32.0 3.2
864 2 49.6 33.6 4.8
865 3 0.0 35.2 3.2
866 1 1.6 36.8 4.8
867 3 3.2 35.2 3.2
868 2 4.8 36.8 4.8
869 3 6.4 35.2 3.2
870 1 8.0 36.8 4.8
871 3 9.6 35.2 3.2
872 3 11.2 36.8 4.8
873 2 12.8 35.2 3.2
874 3 14.4 36.8 4.8
875 1 16.0 35.2 3.2
876 1 17.6 36.8 4.8
877 2 19.2 35.2 3.2
878 2 20.8 36.8 4.8
879 3 22.4 35.2 3.2
880 3 24.0 36.8 4.8
881 2 25.6 35.2 3.2
882 2 27.2 36.8 4.8
883 3 28.8 35.2 3.2
884 3 30.4 36.8 4.8
885 3 32.0 35.2 3.2
886 3 33.6 36.8 4.8
887 1 35.2 35.2 3.2
888 2 36.8 36.8 4.8
889 3 38.4 35.2 3.2
890 2 40.0 36.8 4.8
891 2 41.6 35.2 3.2
892 3 43.2 36.8 4.8
893 3 44.8 35.2 3.2
894 2 46.4 36.8 4.8
895 3 48.0 35.2 3.2
896 3 49.6 36.8 4.8
897 2 0.0 38.4 3.2
898 2 1.6 40.0 4.8
899 3 3.2 38.4 3.2
900 2 4.8 40.0 4.8
901 2 6.4 38.4 3.2
902 3 8.0 40.0 4.8
903 3 9.6 38.4 3.2
904 1 11.2 40.0 4.8
905 3 12.8 38.4 3.2
906 2 14.4 40.0 4.8
907 2 16.0 38.4 3.2
908 2 17.6 40.0 4.8
909 3 19.2 38.4 3.2
910 2 20.8 40.0 4.8
911 2 22.4 38.4 3.2
912 1 24.0 40.0 4.8
913 2 25.6 38.4 3.2
914 3 27.2 40.0 4.8
915 3 28.8 38.4 3.2
916 2 30.4 40.0 4.8
917 3 32.0 38.4 3.2
918 2 33.6 40.0 4.8
919 2 35.2 38.4 3.2
920 3 36.8 40.0 4.8
921 3 38.4 38.4 3.2
922 1 40.0 40.0 4.8
923 3 41.6 38.4 3.2
924 3 43.2 40.0 4.8
925 1 44.8 38.4 3.2
926 1 46.4 40.0 4.8
927 3 48.0 38.4 3.2
928 1 49.6 40.0 4.8
929 2 0.0 41.6 3.2
930 3 1.6 43.2 4.8
931 2 3.2 41.6 3.2
932 2 4.8 43.2 4.8
933 2 6.4 41.6 3.2
934 3 8.0 43.2 4.8
935 3 9.6 41.6 3.2
936 2 11.2 43.2 4.8
937 3 12.8 41.6 3.2
938 3 14.4 43.2 4.8
939 2 16.0 41.6 3.2
940 2 17.6 43.2 4.8
941 3 19.2 41.6 3.2
942 3 20.8 43.2 4.8
943 1 22.4 41.6 3.2
944 3 24.0 43.2 4.8
945 3 25.6 41.6 3.2
946 2 27.2 43.2 4.8
947 2 28.8 41.6 3.2
948 3 30.4 43.2 4.8
949 1 32.0 41.6 3.2
950 2 33.6 43.2 4.8
951 2 35.2 41.6 3.2
952 1 36.8 43.2 4.8
953 3 38.4 41.6 3.2
954 2 40.0 43.2 4.8
955 2 41.6 41.6 3.2
956 3 43.2 43.2 4.8
957 3 44.8 41.6 3.2
958 3 46.4 43.2 4.8
959 3 48.0 41.6 3.2
960 3 49.6 43.2 4.8
961 3 0.0 44.8 3.2
962 1 1.6 46.4 4.8
963 3 3.2 44.8 3.2
964 3 4.8 46.4 4.8
965 2 6.4 44.8 3.2
966 3 8.0 46.4 4.8
967 2 9.6 44.8 3.2
968 2 11.2 46.4 4.8
969 3 12.8 44.8 3.2
970 3 14.4 46.4 4.8
971 2 16.0 44.8 3.2
972 2 17.6 46.4 4.8
973 2 19.2 44.8 3.2
974 2 20.8 46.4 4.8
975 3 22.4 44.8 3.2
976 3 24.0 46.4 4.8
977 2 25.6 44.8 3.2
978 3 27.2 46.4 4.8
979 3 28.8 44.8 3.2
980 3 30.4 46.4 4.8
981 3 32.0 44.8 3.2
982 2 33.6 46.4 4.8
983 2 35.2 44.8 3.2
984 2 36.8 46.4 4.8
985 2 38.4 44.8 3.2
986 2 40.0 46.4 4.8
987 3 41.6 44.8 3.2
988 2 43.2 46.4 4.8
989 2 44.8 44.8 3.2
990 3 46.4 46.4 4.8
991 3 48.0 44.8 3.2
992 3 49.6 46.4 4.8
993 1 0.0 48.0 3.2
994 2 1.6 49.6 4.8
995 3 3.2 48.0 3.2
996 3 4.8 49.6 4.8
997 3 6.4 48.0 3.2
998 2 8.0 49.6 4.8
999 2 9.6 48.0 3.2
1000 2 11.2 49.6 4.8
1001 2 12.8 48.0 3.2
1002 2 14.4 49.6 4.8
1003 2 16.0 48.0 3.2
1004 2 17.6 49.6 4.8
1005 3 19.2 48.0 3.2
1006 2 20.8 49.6 4.8
1007 3 22.4 48.0 3.2
1008 2 24.0 49.6 4.8
1009 3 25.6 48.0 3.2
1010 3 27.2 49.6 4.8
1011 3 28.8 48.0 3.2
1012 3 30.4 49.6 4.8
1013 3 32.0 48.0 3.2
1014 3 33.6 49.6 4.8
1015 3 35.2 48.0 3.2
1016 2 36.8 49.6 4.8
1017 3 38.4 48.0 3.2
1018 2 40.0 49.6 4.8
1019 2 41.6 48.0 3.2
1020 3 43.2 49.6 4.8
1021 2 44.8 48.0 3.2
1022 3 46.4 49.6 4.8
1023 2 48.0 48.0 3.2
1024 3 49.6 49.6 4.8
1025 3 0.0 0.0 6.4
1026 3 1.6 1.6 8.0
1027 3 3.2 0.0 6.4
1028 3 4.8 1.6 8.0
1029 3 6.4 0.0 6.4
1030 3 8.0 1.6 8.0
1031 3 9.6 0.0 6.4
1032 3 11.2 1.6 8.0
1033 2 12.8 0.0 6.4
1034 3 14.4 1.6 8.0
1035 2 16.0 0.0 6.4
1036 3 17.6 1.6 8.0
1037 2 19.2 0.0 6.4
1038 2 20.8 1.6 8.0
1039 3 22.4 0.0 6.4
1040 3 24.0 1.6 8.0
1041 2 25.6 0.0 6.4
1042 3 27.2 1.6 8.0
1043 2 28.8 0.0 6.4
1044 2 30.4 1.6 8.0
1045 2 32.0 0.0 6.4
1046 3 33.6 1.6 8.0
1047 3 35.2 0.0 6.4
1048 3 36.8 1.6 8.0
1049 3 38.4 0.0 6.4
1050 3 40.0 1.6 8.0
1051 1 41.6 0.0 6.4
1052 3 43.2 1.6 8.0
1053 3 44.8 0.0 6.4
1054 3 46.4 1.6 8.0
1055 2 48.0 0.0 6.4
1056 3 49.6 1.6 8.0
1057 2 0.0 3.2 6.4
1058 3 1.6 4.8 8.0
1059 1 3.2 3.2 6.4
1060 2 4.8 4.8 8.0
1061 3 6.4 3.2 6.4
1062 2 8.0 4.8 8.0
1063 2 9.6 3.2 6.4
1064 1 11.2 4.8 8.0
1065 2 12.8 3.2 6.4
1066 2 14.4 4.8 8.0
1067 2 16.0 3.2 6.4
1068 1 17.6 4.8 8.0
1069 1 19.2 3.2 6.4
1070 3 20.8 4.8 8.0
1071 2 22.4 3.2 6.4
1072 3 24.0 4.8 8.0
1073 2 25.6 3.2 6.4
1074 1 27.2 4.8 8.0
1075 2 28.8 3.2 6.4
1076 3 30.4 4.8 8.0
1077 3 32.0 3.2 6.4
1078 3 33.6 4.8 8.0
1079 1 35.2 3.2 6.4
1080 2 36.8 4.8 8.0
1081 3 38.4 3.2 6.4
1082 3 40.0 4.8 8.0
1083 3 41.6 3.2 6.4
1084 2 43.2 4.8 8.0
1085 2 44.8 3.2 6.4
1086 2 46.4 4.8 8.0
1087 3 48.0 3.2 6.4
1088 1 49.6 4.8 8.0
1089 2 0.0 6.4 6.4
1090 3 1.6 8.0 8.0
1091 3 3.2 6.4 6.4
1092 3 4.8 8.0 8.0
1093 3 6.4 6.4 6.4
1094 2 8.0 8.0 8.0
1095 3 9.6 6.4 6.4
1096 3 11.2 8.0 8.0
1097 3 12.8 6.4 6.4
1098 2 14.4 8.0 8.0
1099 3 16.0 6.4 6.4
1100 3 17.6 8.0 8.0
1101 3 19.2 6.4 6.4
1102 2 20.8 8.0 8.0
1103 3 22.4 6.4 6.4
1104 3 24.0 8.0 8.0
1105 3 25.6 6.4 6.4
1106 2 27.2 8.0 8.0
1107 2 28.8 6.4 6.4
1108 3 30.4 8.0 8.0
1109 3 32.0 6.4 6.4
1110 1 33.6 8.0 8.0
1111 3 35.2 6.4 6.4
1112 3 36.8 8.0 8.0
1113 2 38.4 6.4 6.4
1114 3 40.0 8.0 8.0
1115 2 41.6 6.4 6.4
1116 2 43.2 8.0 8.0
1117 3 44.8 6.4 6.4
1118 1 46.4 8.0 8.0
1119 2 48.0 6.4 6.4
1120 3 49.6 8.0 8.0
1121 2 0.0 9.6 6.4
1122 3 1.6 11.2 8.0
1123 2 3.2 9.6 6.4
1124 3 4.8 11.2 8.0
1125 2 6.4 9.6 6.4
1126 1 8.0 11.2 8.0
1127 3 9.6 9.6 6.4
1128 3 11.2 11.2 8.0
1129 1 12.8 9.6 6.4
1130 1 14.4 11.2 8.0
1131 2 16.0 9.6 6.4
1132 2 17.6 11.2 8.0
1133 3 19.2 9.6 6.4
1134 3 20.8 11.2 8.0
1135 2 22.4 9.6 6.4
1136 3 24.0 11.2 8.0
1137 2 25.6 9.6 6.4
1138 2 27.2 11.2 8.0
1139 3 28.8 9.6 6.4
1140 2 30.4 11.2 8.0
1141 3 32.0 9.6 6.4
1142 2 33.6 11.2 8.0
1143 2 35.2 9.6 6.4
1144 3 36.8 11.2 8.0
1145 2 38.4 9.6 6.4
1146 3 40.0 11.2 8.0
1147 3 41.6 9.6 6.4
1148 2 43.2 11.2 8.0
1149 3 44.8 9.6 6.4
1150 1 46.4 11.2 8.0
1151 3 48.0 9.6 6.4
1152 1 49.6 11.2 8.0
1153 3 0.0 12.8 6.4
1154 2 1.6 14.4 8.0
1155 3 3.2 12.8 6.4
1156 3 4.8 14.4 8.0
1157 3 6.4 12.8 6.4
1158 3 8.0 14.4 8.0
1159 3 9.6 12.8 6.4
1160 2 11.2 14.4 8.0
1161 3 12.8 12.8 6.4
1162 1 14.4 14.4 8.0
1163 3 16.0 12.8 6.4
1164 3 17.6 14.4 8.0
1165 3 19.2 12.8 6.4
1166 3 20.8 14.4 8.0
1167 3 22.4 12.8 6.4
1168 2 24.0 14.4 8.0
1169 2 25.6 12.8 6.4
1170 2 27.2 14.4 8.0
1171 3 28.8 12.8 6.4
1172 2 30.4 14.4 8.0
1173 3 32.0 12.8 6.4
1174 3 33.6 14.4 8.0
1175 2 35.2 12.8 6.4
1176 3 36.8 14.4 8.0
1177 1 38.4 12.8 6.4
1178 3 40.0 14.4 8.0
1179 3 41.6 12.8 6.4
1180 1 43.2 14.4 8.0
1181 1 44.8 12.8 6.4
1182 3 46.4 14.4 8.0
1183 2 48.0 12.8 6.4
1184 2 49.6 14.4 8.0
1185 3 0.0 16.0 6.4
1186 3 1.6 17.6 8.0
1187 3 3.2 16.0 6.4
1188 3 4.8 17.6 8.0
1189 1 6.4 16.0 6.4
1190 3 8.0 17.6 8.0
1191 1 9.6 16.0 6.4
1192 2 11.2 17.6 8.0
1193 2 12.8 16.0 6.4
1194 2 14.4 17.6 8.0
1195 2 16.0 16.0 6.4
1196 2 17.6 17.6 8.0
1197 2 19.2 16.0 6.4
1198 3 20.8 17.6 8.0
1199 2 22.4 16.0 6.4
1200 2 24.0 17.6 8.0
1201 2 25.6 16.0 6.4
1202 3 27.2 17.6 8.0
1203 3 28.8 16.0 6.4
1204 1 30.4 17.6 8.0
1205 2 32.0 16.0 6.4
1206 3 33.6 17.6 8.0
1207 1 35.2 16.0 6.4
1208 3 36.8 17.6 8.0
1209 3 38.4 16.0 6.4
1210 3 40.0 17.6 8.0
1211 3 41.6 16.0 6.4
1212 2 43.2 17.6 8.0
1213 3 44.8 16.0 6.4
1214 3 46.4 17.6 8.0
1215 3 48.0 16.0 6.4
1216 2 49.6 17.6 8.0
1217 3 0.0 19.2 6.4
1218 3 1.6 20.8 8.0
1219 1 3.2 19.2 6.4
1220 2 4.8 20.8 8.0
1221 2 6.4 19.2 6.4
1222 2 8.0 20.8 8.0
1223 2 9.6 19.2 6.4
1224 1 11.2 20.8 8.0
1225 2 12.8 19.2 6.4
1226 1 14.4 20.8 8.0
1227 2 16.0 19.2 6.4
1228 2 17.6 20.8 8.0
1229 2 19.2 19.2 6.4
1230 2 20.8 20.8 8.0
1231 3 22.4 19.2 6.4
1232 1 24.0 20.8 8.0
1233 2 25.6 19.2 6.4
1234 2 27.2 20.8 8.0
1235 3 28.8 19.2 6.4
1236 3 30.4 20.8 8.0
1237 3 32.0 19.2 6.4
1238 3 33.6 20.8 8.0
1239 3 35.2 19.2 6.4
1240 2 36.8 20.8 8.0
1241 1 38.4 19.2 6.4
1242 3 40.0 20.8 8.0
1243 3 41.6 19.2 6.4
1244 3 43.2 20.8 8.0
1245 3 44.8 19.2 6.4
1246 2 46.4 20.8 8.0
1247 3 48.0 19.2 6.4
1248 2 49.6 20.8 8.0
1249 1 0.0 22.4 6.4
1250 2 1.6 24.0 8.0
1251 3 3.2 22.4 6.4
1252 3 4.8 24.0 8.0
1253 2 6.4 22.4 6.4
1254 3 8.0 24.0 8.0
1255 2 9.6 22.4 6.4
1256 1 11.2 24.0 8.0
1257 1 12.8 22.4 6.4
1258 2 14.4 24.0 8.0
1259 3 16.0 22.4 6.4
1260 3 17.6 24.0 8.0
1261 2 19.2 22.4 6.4
1262 3 20.8 24.0 8.0
1263 2 22.4 22.4 6.4
1264 3 24.0 24.0 8.0
1265 2 25.6 22.4 6.4
1266 3 27.2 24.0 8.0
1267 2 28.8 22.4 6.4
1268 2 30.4 24.0 8.0
1269 2 32.0 22.4 6.4
1270 3 33.6 24.0 8.0
1271 3 35.2 22.4 6.4
1272 2 36.8 24.0 8.0
1273 3 38.4 22.4 6.4
1274 1 40.0 24.0 8.0
1275 3 41.6 22.4 6.4
1276 2 43.2 24.0 8.0
1277 3 44.8 22.4 6.4
1278 3 46.4 24.0 8.0
1279 2 48.0 22.4 6.4
1280 2 49.6 24.0 8.0
1281 1 0.0 25.6 6.4
1282 3 1.6 27.2 8.0
1283 2 3.2 25.6 6.4
1284 2 4.8 27.2 8.0
1285 2 6.4 25.6 6.4
1286 2 8.0 27.2 8.0
1287 2 9.6 25.6 6.4
1288 2 11.2 27.2 8.0
1289 2 12.8 25.6 6.4
1290 2 14.4 27.2 8.0
1291 3 16.0 25.6 6.4
1292 1 17.6 27.2 8.0
1293 2 19.2 25.6 6.4
1294 3 20.8 27.2 8.0
1295 3 22.4 25.6 6.4
1296 3 24.0 27.2 8.0
1297 3 25.6 25.6 6.4
1298 3 27.2 27.2 8.0
1299 2 28.8 25.6 6.4
1300 2 30.4 27.2 8.0
1301 3 32.0 25.6 6.4
1302 3 33.6 27.2 8.0
1303 2 35.2 25.6 6.4
1304 3 36.8 27.2 8.0
1305 3 38.4 25.6 6.4
1306 3 40.0 27.2 8.0
1307 3 41.6 25.6 6.4
1308 2 43.2 27.2 8.0
1309 3 44.8 25.6 6.4
1310 2 46.4 27.2 8.0
1311 2 48.0 25.6 6.4
1312 3 49.6 27.2 8.0
1313 3 0.0 28.8 6.4
1314 1 1.6 30.4 8.0
1315 2 3.2 28.8 6.4
1316 3 4.8 30.4 8.0
1317 2 6.4 28.8 6.4
1318 2 8.0 30.4 8.0
1319 3 9.6 28.8 6.4
1320 3 11.2 30.4 8.0
1321 2 12.8 28.8 6.4
1322 2 14.4 30.4 8.0
1323 2 16.0 28.8 6.4
1324 3 17.6 30.4 8.0
1325 2 19.2 28.8 6.4
1326 3 20.8 30.4 8.0
1327 3 22.4 28.8 6.4
1328 3 24.0 30.4 8.0
1329 3 25.6 28.8 6.4
1330 2 27.2 30.4 8.0
1331 2 28.8 28.8 6.4
1332 2 30.4 30.4 8.0
1333 3 32.0 28.8 6.4
1334 2 33.6 30.4 8.0
1335 1 35.2 28.8 6.4
1336 3 36.8 30.4 8.0
1337 3 38.4 28.8 6.4
1338 1 40.0 30.4 8.0
1339 3 41.6 28.8 6.4
1340 3 43.2 30.4 8.0
1341 3 44.8 28.8 6.4
1342 3 46.4 30.4 8.0
1343 1 48.0 28.8 6.4
1344 3 49.6 30.4 8.0
1345 3 0.0 32.0 6.4
1346 3 1.6 33.6 8.0
1347 3 3.2 32.0 6.4
1348 3 4.8 33.6 8.0
1349 3 6.4 32.0 6.4
1350 2 8.0 33.6 8.0
1351 2 9.6 32.0 6.4
1352 2 11.2 33.6 8.0
1353 3 12.8 32.0 6.4
1354 3 14.4 33.6 8.0
1355 3 16.0 32.0 6.4
1356 3 17.6 33.6 8.0
1357 3 19.2 32.0 6.4
1358 3 20.8 33.6 8.0
1359 2 22.4 32.0 6.4
1360 3 24.0 33.6 8.0
1361 2 25.6 32.0 6.4
1362 3 27.2 33.6 8.0
1363 2 28.8 32.0 6.4
1364 2 30.4 33.6 8.0
1365 2 32.0 32.0 6.4
1366 3 33.6 33.6 8.0
1367 3 35.2 32.0 6.4
1368 3 36.8 33.6 8.0
1369 2 38.4 32.0 6.4
1370 3 40.0 33.6 8.0
1371 3 41.6 32.0 6.4
1372 2 43.2 33.6 8.0
1373 2 44.8 32.0 6.4
1374 3 46.4 33.6 8.0
1375 3 48.0 32.0 6.4
1376 3 49.6 33.6 8.0
1377 2 0.0 35.2 6.4
1378 3 1.6 36.8 8.0
1379 2 3.2 35.2 6.4
1380 3 4.8 36.8 8.0
1381 1 6.4 35.2 6.4
1382 1 8.0 36.8 8.0
1383 2 9.6 35.2 6.4
1384 2 11.2 36.8 8.0
1385 3 12.8 35.2 6.4
1386 3 14.4 36.8 8.0
1387 1 16.0 35.2 6.4
1388 2 17.6 36.8 8.0
1389 3 19.2 35.2 6.4
1390 2 20.8 36.8 8.0
1391 3 22.4 35.2 6.4
1392 2 24.0 36.8 8.0
1393 3 25.6 35.2 6.4
1394 3 27.2 36.8 8.0
1395 2 28.8 35.2 6.4
1396 3 30.4 36.8 8.0
1397 2 32.0 35.2 6.4
1398 3 33.6 36.8 8.0
1399 3 35.2 35.2 6.4
1400 2 36.8 36.8 8.0
1401 3 38.4 35.2 6.4
1402 3 40.0 36.8 8.0
1403 2 41.6 35.2 6.4
1404 2 43.2 36.8 8.0
1405 3 44.8 35.2 6.4
1406 3 46.4 36.8 8.0
1407 2 48.0 35.2 6.4
1408 2 49.6 36.8 8.0
1409 3 0.0 38.4 6.4
1410 2 1.6 40.0 8.0
1411 2 3.2 38.4 6.4
1412 2 4.8 40.0 8.0
1413 2 6.4 38.4 6.4
1414 3 8.0 40.0 8.0
1415 3 9.6 38.4 6.4
1416 3 11.2 40.0 8.0
1417 1 12.8 38.4 6.4
1418 2 14.4 40.0 8.0
1419 3 16.0 38.4 6.4
1420 3 17.6 40.0 8.0
1421 1 19.2 38.4 6.4
1422 2 20.8 40.0 8.0
1423 2 22.4 38.4 6.4
1424 2 24.0 40.0 8.0
1425 1 25.6 38.4 6.4
1426 2 27.2 40.0 8.0
1427 2 28.8 38.4 6.4
1428 2 30.4 40.0 8.0
1429 2 32.0 38.4 6.4
1430 3 33.6 40.0 8.0
1431 3 35.2 38.4 6.4
1432 3 36.8 40.0 8.0
1433 2 38.4 38.4 6.4
1434 3 40.0 40.0 8.0
1435 3 41.6 38.4 6.4
1436 3 43.2 40.0 8.0
1437 3 44.8 38.4 6.4
1438 3 46.4 40.0 8.0
1439 2 48.0 38.4 6.4
1440 3 49.6 40.0 8.0
1441 2 0.0 41.6 6.4
1442 3 1.6 43.2 8.0
1443 2 3.2 41.6 6.4
1444 2 4.8 43.2 8.0
1445 3 6.4 41.6 6.4
1446 3 8.0 43.2 8.0
1447 3 9.6 41.6 6.4
1448 3 11.2 43.2 8.0
1449 3 12.8 41.6 6.4
1450 3 14.4 43.2 8.0
1451 2 16.0 41.6 6.4
1452 3 17.6 43.2 8.0
1453 2 19.2 41.6 6.4
1454 1 20.8 43.2 8.0
1455 1 22.4 41.6 6.4
1456 3 24.0 43.2 8.0
1457 2 25.6 41.6 6.4
1458 2 27.2 43.2 8.0
1459 2 28.8 41.6 6.4
1460 2 30.4 43.2 8.0
1461 2 32.0 41.6 6.4
1462 2 33.6 43.2 8.0
1463 1 35.2 41.6 6.4
1464 3 36.8 43.2 8.0
1465 2 38.4 41.6 6.4
1466 3 40.0 43.2 8.0
1467 3 41.6 41.6 6.4
1468 2 43.2 43.2 8.0
1469 2 44.8 41.6 6.4
1470 3 46.4 43.2 8.0
1471 2 48.0 41.6 6.4
1472 1 49.6 43.2 8.0
1473 2 0.0 44.8 6.4
1474 3 1.6 46.4 8.0
1475 3 3.2 44.8 6.4
1476 2 4.8 46.4 8.0
1477 3 6.4 44.8 6.4
1478 3 8.0 46.4 8.0
1479 2 9.6 44.8 6.4
1480 3 11.2 46.4 8.0
1481 3 12.8 44.8 6.4
1482 2 14.4 46.4 8.0
1483 3 16.0 44.8 6.4
1484 2 17.6 46.4 8.0
1485 3 19.2 44.8 6.4
1486 3 20.8 46.4 8.0
1487 2 22.4 44.8 6.4
1488 3 24.0 46.4 8.0
1489 2 25.6 44.8 6.4
1490 2 27.2 46.4 8.0
1491 2 28.8 44.8 6.4
1492 2 30.4 46.4 8.0
1493 2 32.0 44.8 6.4
1494 3 33.6 46.4 8.0
1495 3 35.2 44.8 6.4
1496 2 36.8 46.4 8.0
1497 3 38.4 44.8 6.4
1498 3 40.0 46.4 8.0
1499 3 41.6 44.8 6.4
1500 2 43.2 46.4 8.0