 # Bcc Mo oriented X=[100] Y=[010] Z=[001].
  
        8192  atoms
           4  atom types
 
      0.000000000000      51.200000000000  xlo xhi
      0.000000000000      51.200000000000  ylo yhi
      0.000000000000      51.200000000000  zlo zhi
 
 
 
Atoms # atomic

1 1 0.0 0.0 0.0
2 2 1.6 1.6 1.6
3 1 3.2 0.0 0.0
4 2 4.8 1.6 1.6
5 1 6.4 0.0 0.0
6 3 8.0 1.6 1.6
7 1 9.6 0.0 0.0
8 3 11.2 1.6 1.6
9 1 12.8 0.0 0.0
10 3 14.4 1.6 1.6
11 1 16.0 0.0 0.0
12 2 17.6 1.6 1.6
13 1 19.2 0.0 0.0
14 3 20.8 1.6 1.6
15 1 22.4 0.0 0.0
16 2 24.0 1.6 1.6
17 1 25.6 0.0 0.0
18 2 27.2 1.6 1.6
19 1 28.8 0.0 0.0
20 1 30.4 1.6 1.6
21 2 32.0 0.0 0.0
22 1 33.6 1.6 1.6
23 2 35.2 0.0 0.0
24 1 36.8 1.6 1.6
25 3 38.4 0.0 0.0
26 1 40.0 1.6 1.6
27 2 41.6 0.0 0.0
28 1 43.2 1.6 1.6
29 2 44.8 0.0 0.0
30 2 46.4 1.6 1.6
31 2 48.0 0.0 0.0
32 2 49.6 1.6 1.6
33 2 0.0 3.2 0.0
34 2 1.6 4.8 1.6
35 1 3.2 3.2 0.0
36 2 4.8 4.8 1.6
37 1 6.4 3.2 0.0
38 2 8.0 4.8 1.6
39 1 9.6 3.2 0.0
40 2 11.2 4.8 1.6
41 1 12.8 3.2 0.0
42 2 14.4 4.8 1.6
43 2 16.0 3.2 0.0
44 2 17.6 4.8 1.6
45 1 19.2 3.2 0.0
46 2 20.8 4.8 1.6
47 1 22.4 3.2 0.0
48 2 24.0 4.8 1.6
49 1 25.6 3.2 0.0
50 2 27.2 4.8 1.6
51 1 28.8 3.2 0.0
52 1 30.4 4.8 1.6
53 2 32.0 3.2 0.0
54 1 33.6 4.8 1.6
55 2 35.2 3.2 0.0
56 1 36.8 4.8 1.6
57 2 38.4 3.2 0.0
58 1 40.0 4.8 1.6
59 2 41.6 3.2 0.0
60 1 43.2 4.8 1.6
61 1 44.8 3.2 0.0
62 3 46.4 4.8 1.6
63 2 48.0 3.2 0.0
64 1 49.6 4.8 1.6
65 2 0.0 6.4 0.0
66 1 1.6 8.0 1.6
67 1 3.2 6.4 0.0
68 2 4.8 8.0 1.6
69 1 6.4 6.4 0.0
70 2 8.0 8.0 1.6
71 1 9.6 6.4 0.0
72 1 11.2 8.0 1.6
73 2 12.8 6.4 0.0
74 2 14.4 8.0 1.6
75 1 16.0 6.4 0.0
76 3 17.6 8.0 1.6
77 1 19.2 6.4 0.0
78 2 20.8 8.0 1.6
79 2 22.4 6.4 0.0
80 2 24.0 8.0 1.6
81 2 25.6 6.4 0.0
82 1 27.2 8.0 1.6
83 2 28.8 6.4 0.0
84 1 30.4 8.0 1.6
85 2 32.0 6.4 0.0
86 1 33.6 8.0 1.6
87 2 35.2 6.4 0.0
88 1 36.8 8.0 1.6
89 2 38.4 6.4 0.0
90 1 40.0 8.0 1.6
91 2 41.6 6.4 0.0
92 1 43.2 8.0 1.6
93 2 44.8 6.4 0.0
94 1 46.4 8.0 1.6
95 2 48.0 6.4 0.0
96 1 49.6 8.0 1.6
97 2 0.0 9.6 0.0
98 1 1.6 11.2 1.6
99 2 3.2 9.6 0.0
100 1 4.8 11.2 1.6
101 1 6.4 9.6 0.0
102 2 8.0 11.2 1.6
103 1 9.6 9.6 0.0
104 2 11.2 11.2 1.6
105 2 12.8 9.6 0.0
106 2 14.4 11.2 1.6
107 1 16.0 9.6 0.0
108 3 17.6 11.2 1.6
109 2 19.2 9.6 0.0
110 2 20.8 11.2 1.6
111 2 22.4 9.6 0.0
112 2 24.0 11.2 1.6
113 2 25.6 9.6 0.0
114 2 27.2 11.2 1.6
115 1 28.8 9.6 0.0
116 2 30.4 11.2 1.6
117 1 32.0 9.6 0.0
118 2 33.6 11.2 1.6
119 1 35.2 9.6 0.0
120 1 36.8 11.2 1.6
121 3 38.4 9.6 0.0
122 1 40.0 11.2 1.6
123 3 41.6 9.6 0.0
124 1 43.2 11.2 1.6
125 2 44.8 9.6 0.0
126 1 46.4 11.2 1.6
127 2 48.0 9.6 0.0
128 1 49.6 11.2 1.6
129 3 0.0 12.8 0.0
130 1 1.6 14.4 1.6
131 3 3.2 12.8 0.0
132 2 4.8 14.4 1.6
133 1 6.4 12.8 0.0
134 2 8.0 14.4 1.6
135 1 9.6 12.8 0.0
136 3 11.2 14.4 1.6
137 1 12.8 12.8 0.0
138 3 14.4 14.4 1.6
139 1 16.0 12.8 0.0
140 2 17.6 14.4 1.6
141 1 19.2 12.8 0.0
142 2 20.8 14.4 1.6
143 1 22.4 12.8 0.0
144 2 24.0 14.4 1.6
145 1 25.6 12.8 0.0
146 2 27.2 14.4 1.6
147 1 28.8 12.8 0.0
148 2 30.4 14.4 1.6
149 1 32.0 12.8 0.0
150 1 33.6 14.4 1.6
151 2 35.2 12.8 0.0
152 2 36.8 14.4 1.6
153 2 38.4 12.8 0.0
154 1 40.0 14.4 1.6
155 3 41.6 12.8 0.0
156 1 43.2 14.4 1.6
157 2 44.8 12.8 0.0
158 1 46.4 14.4 1.6
159 3 48.0 12.8 0.0
160 1 49.6 14.4 1.6
161 2 0.0 16.0 0.0
162 1 1.6 17.6 1.6
163 2 3.2 16.0 0.0
164 2 4.8 17.6 1.6
165 1 6.4 16.0 0.0
166 2 8.0 17.6 1.6
167 1 9.6 16.0 0.0
168 2 11.2 17.6 1.6
169 1 12.8 16.0 0.0
170 2 14.4 17.6 1.6
171 1 16.0 16.0 0.0
172 2 17.6 17.6 1.6
173 1 19.2 16.0 0.0
174 2 20.8 17.6 1.6
175 1 22.4 16.0 0.0
176 2 24.0 17.6 1.6
177 1 25.6 16.0 0.0
178 2 27.2 17.6 1.6
179 1 28.8 16.0 0.0
180 2 30.4 17.6 1.6
181 2 32.0 16.0 0.0
182 1 33.6 17.6 1.6
183 3 35.2 16.0 0.0
184 2 36.8 17.6 1.6
185 2 38.4 16.0 0.0
186 1 40.0 17.6 1.6
187 2 41.6 16.0 0.0
188 1 43.2 17.6 1.6
189 2 44.8 16.0 0.0
190 1 46.4 17.6 1.6
191 3 48.0 16.0 0.0
192 1 49.6 17.6 1.6
193 3 0.0 19.2 0.0
194 1 1.6 20.8 1.6
195 2 3.2 19.2 0.0
196 2 4.8 20.8 1.6
197 2 6.4 19.2 0.0
198 2 8.0 20.8 1.6
199 1 9.6 19.2 0.0
200 2 11.2 20.8 1.6
201 1 12.8 19.2 0.0
202 2 14.4 20.8 1.6
203 1 16.0 19.2 0.0
204 2 17.6 20.8 1.6
205 1 19.2 19.2 0.0
206 2 20.8 20.8 1.6
207 1 22.4 19.2 0.0
208 2 24.0 20.8 1.6
209 1 25.6 19.2 0.0
210 3 27.2 20.8 1.6
211 1 28.8 19.2 0.0
212 3 30.4 20.8 1.6
213 1 32.0 19.2 0.0
214 2 33.6 20.8 1.6
215 2 35.2 19.2 0.0
216 2 36.8 20.8 1.6
217 2 38.4 19.2 0.0
218 2 40.0 20.8 1.6
219 2 41.6 19.2 0.0
220 1 43.2 20.8 1.6
221 2 44.8 19.2 0.0
222 1 46.4 20.8 1.6
223 2 48.0 19.2 0.0
224 1 49.6 20.8 1.6
225 3 0.0 22.4 0.0
226 1 1.6 24.0 1.6
227 3 3.2 22.4 0.0
228 1 4.8 24.0 1.6
229 2 6.4 22.4 0.0
230 3 8.0 24.0 1.6
231 1 9.6 22.4 0.0
232 1 11.2 24.0 1.6
233 2 12.8 22.4 0.0
234 1 14.4 24.0 1.6
235 2 16.0 22.4 0.0
236 3 17.6 24.0 1.6
237 2 19.2 22.4 0.0
238 1 20.8 24.0 1.6
239 2 22.4 22.4 0.0
240 1 24.0 24.0 1.6
241 1 25.6 22.4 0.0
242 3 27.2 24.0 1.6
243 1 28.8 22.4 0.0
244 2 30.4 24.0 1.6
245 2 32.0 22.4 0.0
246 1 33.6 24.0 1.6
247 2 35.2 22.4 0.0
248 1 36.8 24.0 1.6
249 2 38.4 22.4 0.0
250 2 40.0 24.0 1.6
251 2 41.6 22.4 0.0
252 2 43.2 24.0 1.6
253 2 44.8 22.4 0.0
254 1 46.4 24.0 1.6
255 2 48.0 22.4 0.0
256 1 49.6 24.0 1.6
257 2 0.0 25.6 0.0
258 1 1.6 27.2 1.6
259 2 3.2 25.6 0.0
260 1 4.8 27.2 1.6
261 2 6.4 25.6 0.0
262 1 8.0 27.2 1.6
263 3 9.6 25.6 0.0
264 1 11.2 27.2 1.6
265 2 12.8 25.6 0.0
266 1 14.4 27.2 1.6
267 2 16.0 25.6 0.0
268 1 17.6 27.2 1.6
269 2 19.2 25.6 0.0
270 1 20.8 27.2 1.6
271 3 22.4 25.6 0.0
272 1 24.0 27.2 1.6
273 1 25.6 25.6 0.0
274 2 27.2 27.2 1.6
275 1 28.8 25.6 0.0
276 2 30.4 27.2 1.6
277 2 32.0 25.6 0.0
278 1 33.6 27.2 1.6
279 3 35.2 25.6 0.0
280 1 36.8 27.2 1.6
281 3 38.4 25.6 0.0
282 1 40.0 27.2 1.6
283 3 41.6 25.6 0.0
284 2 43.2 27.2 1.6
285 2 44.8 25.6 0.0
286 2 46.4 27.2 1.6
287 2 48.0 25.6 0.0
288 2 49.6 27.2 1.6
289 2 0.0 28.8 0.0
290 1 1.6 30.4 1.6
291 2 3.2 28.8 0.0
292 1 4.8 30.4 1.6
293 2 6.4 28.8 0.0
294 1 8.0 30.4 1.6
295 3 9.6 28.8 0.0
296 1 11.2 30.4 1.6
297 2 12.8 28.8 0.0
298 1 14.4 30.4 1.6
299 2 16.0 28.8 0.0
300 1 17.6 30.4 1.6
301 2 19.2 28.8 0.0
302 1 20.8 30.4 1.6
303 2 22.4 28.8 0.0
304 2 24.0 30.4 1.6
305 1 25.6 28.8 0.0
306 2 27.2 30.4 1.6
307 1 28.8 28.8 0.0
308 2 30.4 30.4 1.6
309 2 32.0 28.8 0.0
310 1 33.6 30.4 1.6
311 3 35.2 28.8 0.0
312 1 36.8 30.4 1.6
313 2 38.4 28.8 0.0
314 2 40.0 30.4 1.6
315 2 41.6 28.8 0.0
316 2 43.2 30.4 1.6
317 1 44.8 28.8 0.0
318 2 46.4 30.4 1.6
319 2 48.0 28.8 0.0
320 2 49.6 30.4 1.6
321 2 0.0 32.0 0.0
322 1 1.6 33.6 1.6
323 3 3.2 32.0 0.0
324 1 4.8 33.6 1.6
325 3 6.4 32.0 0.0
326 1 8.0 33.6 1.6
327 2 9.6 32.0 0.0
328 1 11.2 33.6 1.6
329 2 12.8 32.0 0.0
330 1 14.4 33.6 1.6
331 2 16.0 32.0 0.0
332 1 17.6 33.6 1.6
333 2 19.2 32.0 0.0
334 1 20.8 33.6 1.6
335 2 22.4 32.0 0.0
336 2 24.0 33.6 1.6
337 1 25.6 32.0 0.0
338 2 27.2 33.6 1.6
339 1 28.8 32.0 0.0
340 2 30.4 33.6 1.6
341 2 32.0 32.0 0.0
342 1 33.6 33.6 1.6
343 3 35.2 32.0 0.0
344 1 36.8 33.6 1.6
345 2 38.4 32.0 0.0
346 2 40.0 33.6 1.6
347 2 41.6 32.0 0.0
348 2 43.2 33.6 1.6
349 1 44.8 32.0 0.0
350 2 46.4 33.6 1.6
351 1 48.0 32.0 0.0
352 1 49.6 33.6 1.6
353 2 0.0 35.2 0.0
354 1 1.6 36.8 1.6
355 3 3.2 35.2 0.0
356 1 4.8 36.8 1.6
357 3 6.4 35.2 0.0
358 1 8.0 36.8 1.6
359 2 9.6 35.2 0.0
360 1 11.2 36.8 1.6
361 2 12.8 35.2 0.0
362 1 14.4 36.8 1.6
363 2 16.0 35.2 0.0
364 2 17.6 36.8 1.6
365 2 19.2 35.2 0.0
366 2 20.8 36.8 1.6
367 1 22.4 35.2 0.0
368 2 24.0 36.8 1.6
369 1 25.6 35.2 0.0
370 2 27.2 36.8 1.6
371 1 28.8 35.2 0.0
372 3 30.4 36.8 1.6
373 2 32.0 35.2 0.0
374 1 33.6 36.8 1.6
375 2 35.2 35.2 0.0
376 1 36.8 36.8 1.6
377 2 38.4 35.2 0.0
378 2 40.0 36.8 1.6
379 2 41.6 35.2 0.0
380 1 43.2 36.8 1.6
381 2 44.8 35.2 0.0
382 1 46.4 36.8 1.6
383 2 48.0 35.2 0.0
384 1 49.6 36.8 1.6
385 2 0.0 38.4 0.0
386 1 1.6 40.0 1.6
387 3 3.2 38.4 0.0
388 1 4.8 40.0 1.6
389 2 6.4 38.4 0.0
390 2 8.0 40.0 1.6
391 2 9.6 38.4 0.0
392 2 11.2 40.0 1.6
393 2 12.8 38.4 0.0
394 2 14.4 40.0 1.6
395 1 16.0 38.4 0.0
396 3 17.6 40.0 1.6
397 1 19.2 38.4 0.0
398 2 20.8 40.0 1.6
399 1 22.4 38.4 0.0
400 2 24.0 40.0 1.6
401 2 25.6 38.4 0.0
402 2 27.2 40.0 1.6
403 1 28.8 38.4 0.0
404 2 30.4 40.0 1.6
405 1 32.0 38.4 0.0
406 2 33.6 40.0 1.6
407 2 35.2 38.4 0.0
408 3 36.8 40.0 1.6
409 2 38.4 38.4 0.0
410 2 40.0 40.0 1.6
411 2 41.6 38.4 0.0
412 1 43.2 40.0 1.6
413 2 44.8 38.4 0.0
414 2 46.4 40.0 1.6
415 2 48.0 38.4 0.0
416 1 49.6 40.0 1.6
417 2 0.0 41.6 0.0
418 1 1.6 43.2 1.6
419 2 3.2 41.6 0.0
420 2 4.8 43.2 1.6
421 2 6.4 41.6 0.0
422 2 8.0 43.2 1.6
423 1 9.6 41.6 0.0
424 2 11.2 43.2 1.6
425 1 12.8 41.6 0.0
426 2 14.4 43.2 1.6
427 1 16.0 41.6 0.0
428 3 17.6 43.2 1.6
429 1 19.2 41.6 0.0
430 2 20.8 43.2 1.6
431 1 22.4 41.6 0.0
432 3 24.0 43.2 1.6
433 1 25.6 41.6 0.0
434 2 27.2 43.2 1.6
435 1 28.8 41.6 0.0
436 2 30.4 43.2 1.6
437 1 32.0 41.6 0.0
438 3 33.6 43.2 1.6
439 1 35.2 41.6 0.0
440 2 36.8 43.2 1.6
441 2 38.4 41.6 0.0
442 1 40.0 43.2 1.6
443 2 41.6 41.6 0.0
444 2 43.2 43.2 1.6
445 1 44.8 41.6 0.0
446 2 46.4 43.2 1.6
447 2 48.0 41.6 0.0
448 1 49.6 43.2 1.6
449 2 0.0 44.8 0.0
450 2 1.6 46.4 1.6
451 1 3.2 44.8 0.0
452 2 4.8 46.4 1.6
453 1 6.4 44.8 0.0
454 3 8.0 46.4 1.6
455 1 9.6 44.8 0.0
456 3 11.2 46.4 1.6
457 1 12.8 44.8 0.0
458 2 14.4 46.4 1.6
459 1 16.0 44.8 0.0
460 3 17.6 46.4 1.6
461 1 19.2 44.8 0.0
462 3 20.8 46.4 1.6
463 1 22.4 44.8 0.0
464 2 24.0 46.4 1.6
465 1 25.6 44.8 0.0
466 2 27.2 46.4 1.6
467 1 28.8 44.8 0.0
468 1 30.4 46.4 1.6
469 2 32.0 44.8 0.0
470 1 33.6 46.4 1.6
471 2 35.2 44.8 0.0
472 1 36.8 46.4 1.6
473 2 38.4 44.8 0.0
474 1 40.0 46.4 1.6
475 2 41.6 44.8 0.0
476 1 43.2 46.4 1.6
477 2 44.8 44.8 0.0
478 1 46.4 46.4 1.6
479 2 48.0 44.8 0.0
480 1 49.6 46.4 1.6
481 2 0.0 48.0 0.0
482 3 1.6 49.6 1.6
483 1 3.2 48.0 0.0
484 2 4.8 49.6 1.6
485 1 6.4 48.0 0.0
486 2 8.0 49.6 1.6
487 1 9.6 48.0 0.0
488 3 11.2 49.6 1.6
489 1 12.8 48.0 0.0
490 2 14.4 49.6 1.6
491 1 16.0 48.0 0.0
492 2 17.6 49.6 1.6
493 1 19.2 48.0 0.0
494 3 20.8 49.6 1.6
495 1 22.4 48.0 0.0
496 3 24.0 49.6 1.6
497 1 25.6 48.0 0.0
498 2 27.2 49.6 1.6
499 2 28.8 48.0 0.0
500 2 30.4 49.6 1.6
501 2 32.0 48.0 0.0
502 1 33.6 49.6 1.6
503 2 35.2 48.0 0.0
504 1 36.8 49.6 1.6
505 2 38.4 48.0 0.0
506 1 40.0 49.6 1.6
507 2 41.6 48.0 0.0
508 1 43.2 49.6 1.6
509 2 44.8 48.0 0.0
510 2 46.4 49.6 1.6
511 2 48.0 48.0 0.0
512 2 49.6 49.6 1.6
513 1 0.0 0.0 3.2
514 2 1.6 1.6 4.8
515 1 3.2 0.0 3.2
516 3 4.8 1.6 4.8
517 1 6.4 0.0 3.2
518 2 8.0 1.6 4.8
519 1 9.6 0.0 3.2
520 2 11.2 1.6 4.8
521 1 12.8 0.0 3.2
522 2 14.4 1.6 4.8
523 1 16.0 0.0 3.2
524 1 17.6 1.6 4.8
525 2 19.2 0.0 3.2
526 1 20.8 1.6 4.8
527 1 22.4 0.0 3.2
528 1 24.0 1.6 4.8
529 2 25.6 0.0 3.2
530 1 27.2 1.6 4.8
531 1 28.8 0.0 3.2
532 1 30.4 1.6 4.8
533 3 32.0 0.0 3.2
534 1 33.6 1.6 4.8
535 2 35.2 0.0 3.2
536 1 36.8 1.6 4.8
537 2 38.4 0.0 3.2
538 1 40.0 1.6 4.8
539 3 41.6 0.0 3.2
540 1 43.2 1.6 4.8
541 2 44.8 0.0 3.2
542 2 46.4 1.6 4.8
543 1 48.0 0.0 3.2
544 2 49.6 1.6 4.8
545 1 0.0 3.2 3.2
546 2 1.6 4.8 4.8
547 2 3.2 3.2 3.2
548 2 4.8 4.8 4.8
549 1 6.4 3.2 3.2
550 2 8.0 4.8 4.8
551 1 9.6 3.2 3.2
552 2 11.2 4.8 4.8
553 1 12.8 3.2 3.2
554 2 14.4 4.8 4.8
555 2 16.0 3.2 3.2
556 2 17.6 4.8 4.8
557 2 19.2 3.2 3.2
558 2 20.8 4.8 4.8
559 1 22.4 3.2 3.2
560 2 24.0 4.8 4.8
561 2 25.6 3.2 3.2
562 2 27.2 4.8 4.8
563 2 28.8 3.2 3.2
564 1 30.4 4.8 4.8
565 3 32.0 3.2 3.2
566 1 33.6 4.8 4.8
567 3 35.2 3.2 3.2
568 1 36.8 4.8 4.8
569 3 38.4 3.2 3.2
570 1 40.0 4.8 4.8
571 2 41.6 3.2 3.2
572 1 43.2 4.8 4.8
573 2 44.8 3.2 3.2
574 2 46.4 4.8 4.8
575 1 48.0 3.2 3.2
576 2 49.6 4.8 4.8
577 2 0.0 6.4 3.2
578 1 1.6 8.0 4.8
579 2 3.2 6.4 3.2
580 2 4.8 8.0 4.8
581 1 6.4 6.4 3.2
582 2 8.0 8.0 4.8
583 3 9.6 6.4 3.2
584 2 11.2 8.0 4.8
585 1 12.8 6.4 3.2
586 2 14.4 8.0 4.8
587 1 16.0 6.4 3.2
588 2 17.6 8.0 4.8
589 1 19.2 6.4 3.2
590 1 20.8 8.0 4.8
591 1 22.4 6.4 3.2
592 2 24.0 8.0 4.8
593 1 25.6 6.4 3.2
594 2 27.2 8.0 4.8
595 2 28.8 6.4 3.2
596 2 30.4 8.0 4.8
597 3 32.0 6.4 3.2
598 1 33.6 8.0 4.8
599 3 35.2 6.4 3.2
600 1 36.8 8.0 4.8
601 2 38.4 6.4 3.2
602 1 40.0 8.0 4.8
603 2 41.6 6.4 3.2
604 2 43.2 8.0 4.8
605 3 44.8 6.4 3.2
606 1 46.4 8.0 4.8
607 2 48.0 6.4 3.2
608 1 49.6 8.0 4.8
609 3 0.0 9.6 3.2
610 1 1.6 11.2 4.8
611 3 3.2 9.6 3.2
612 2 4.8 11.2 4.8
613 1 6.4 9.6 3.2
614 2 8.0 11.2 4.8
615 2 9.6 9.6 3.2
616 2 11.2 11.2 4.8
617 1 12.8 9.6 3.2
618 2 14.4 11.2 4.8
619 1 16.0 9.6 3.2
620 2 17.6 11.2 4.8
621 2 19.2 9.6 3.2
622 1 20.8 11.2 4.8
623 2 22.4 9.6 3.2
624 1 24.0 11.2 4.8
625 2 25.6 9.6 3.2
626 1 27.2 11.2 4.8
627 2 28.8 9.6 3.2
628 1 30.4 11.2 4.8
629 2 32.0 9.6 3.2
630 2 33.6 11.2 4.8
631 2 35.2 9.6 3.2
632 1 36.8 11.2 4.8
633 2 38.4 9.6 3.2
634 1 40.0 11.2 4.8
635 2 41.6 9.6 3.2
636 1 43.2 11.2 4.8
637 2 44.8 9.6 3.2
638 2 46.4 11.2 4.8
639 2 48.0 9.6 3.2
640 1 49.6 11.2 4.8
641 3 0.0 12.8 3.2
642 1 1.6 14.4 4.8
643 3 3.2 12.8 3.2
644 1 4.8 14.4 4.8
645 2 6.4 12.8 3.2
646 1 8.0 14.4 4.8
647 1 9.6 12.8 3.2
648 2 11.2 14.4 4.8
649 1 12.8 12.8 3.2
650 3 14.4 14.4 4.8
651 1 16.0 12.8 3.2
652 2 17.6 14.4 4.8
653 1 19.2 12.8 3.2
654 1 20.8 14.4 4.8
655 2 22.4 12.8 3.2
656 1 24.0 14.4 4.8
657 2 25.6 12.8 3.2
658 1 27.2 14.4 4.8
659 1 28.8 12.8 3.2
660 1 30.4 14.4 4.8
661 2 32.0 12.8 3.2
662 1 33.6 14.4 4.8
663 2 35.2 12.8 3.2
664 1 36.8 14.4 4.8
665 3 38.4 12.8 3.2
666 1 40.0 14.4 4.8
667 2 41.6 12.8 3.2
668 1 43.2 14.4 4.8
669 2 44.8 12.8 3.2
670 1 46.4 14.4 4.8
671 3 48.0 12.8 3.2
672 1 49.6 14.4 4.8
673 3 0.0 16.0 3.2
674 1 1.6 17.6 4.8
675 2 3.2 16.0 3.2
676 1 4.8 17.6 4.8
677 2 6.4 16.0 3.2
678 2 8.0 17.6 4.8
679 1 9.6 16.0 3.2
680 3 11.2 17.6 4.8
681 1 12.8 16.0 3.2
682 2 14.4 17.6 4.8
683 1 16.0 16.0 3.2
684 2 17.6 17.6 4.8
685 2 19.2 16.0 3.2
686 1 20.8 17.6 4.8
687 2 22.4 16.0 3.2
688 1 24.0 17.6 4.8
689 2 25.6 16.0 3.2
690 1 27.2 17.6 4.8
691 2 28.8 16.0 3.2
692 1 30.4 17.6 4.8
693 2 32.0 16.0 3.2
694 2 33.6 17.6 4.8
695 3 35.2 16.0 3.2
696 2 36.8 17.6 4.8
697 2 38.4 16.0 3.2
698 1 40.0 17.6 4.8
699 3 41.6 16.0 3.2
700 1 43.2 17.6 4.8
701 2 44.8 16.0 3.2
702 1 46.4 17.6 4.8
703 2 48.0 16.0 3.2
704 1 49.6 17.6 4.8
705 3 0.0 19.2 3.2
706 1 1.6 20.8 4.8
707 2 3.2 19.2 3.2
708 1 4.8 20.8 4.8
709 2 6.4 19.2 3.2
710 2 8.0 20.8 4.8
711 1 9.6 19.2 3.2
712 2 11.2 20.8 4.8
713 1 12.8 19.2 3.2
714 2 14.4 20.8 4.8
715 1 16.0 19.2 3.2
716 2 17.6 20.8 4.8
717 2 19.2 19.2 3.2
718 1 20.8 20.8 4.8
719 2 22.4 19.2 3.2
720 1 24.0 20.8 4.8
721 2 25.6 19.2 3.2
722 2 27.2 20.8 4.8
723 2 28.8 19.2 3.2
724 2 30.4 20.8 4.8
725 1 32.0 19.2 3.2
726 3 33.6 20.8 4.8
727 1 35.2 19.2 3.2
728 2 36.8 20.8 4.8
729 1 38.4 19.2 3.2
730 2 40.0 20.8 4.8
731 2 41.6 19.2 3.2
732 1 43.2 20.8 4.8
733 2 44.8 19.2 3.2
734 1 46.4 20.8 4.8
735 3 48.0 19.2 3.2
736 1 49.6 20.8 4.8
737 3 0.0 22.4 3.2
738 1 1.6 24.0 4.8
739 2 3.2 22.4 3.2
740 1 4.8 24.0 4.8
741 1 6.4 22.4 3.2
742 2 8.0 24.0 4.8
743 1 9.6 22.4 3.2
744 1 11.2 24.0 4.8
745 2 12.8 22.4 3.2
746 1 14.4 24.0 4.8
747 2 16.0 22.4 3.2
748 1 17.6 24.0 4.8
749 2 19.2 22.4 3.2
750 1 20.8 24.0 4.8
751 2 22.4 22.4 3.2
752 2 24.0 24.0 4.8
753 1 25.6 22.4 3.2
754 2 27.2 24.0 4.8
755 1 28.8 22.4 3.2
756 2 30.4 24.0 4.8
757 1 32.0 22.4 3.2
758 2 33.6 24.0 4.8
759 1 35.2 22.4 3.2
760 1 36.8 24.0 4.8
761 1 38.4 22.4 3.2
762 2 40.0 24.0 4.8
763 2 41.6 22.4 3.2
764 2 43.2 24.0 4.8
765 2 44.8 22.4 3.2
766 1 46.4 24.0 4.8
767 2 48.0 22.4 3.2
768 1 49.6 24.0 4.8
769 2 0.0 25.6 3.2
770 1 1.6 27.2 4.8
771 2 3.2 25.6 3.2
772 1 4.8 27.2 4.8
773 2 6.4 25.6 3.2
774 2 8.0 27.2 4.8
775 2 9.6 25.6 3.2
776 2 11.2 27.2 4.8
777 2 12.8 25.6 3.2
778 1 14.4 27.2 4.8
779 3 16.0 25.6 3.2
780 1 17.6 27.2 4.8
781 2 19.2 25.6 3.2
782 1 20.8 27.2 4.8
783 2 22.4 25.6 3.2
784 2 24.0 27.2 4.8
785 2 25.6 25.6 3.2
786 3 27.2 27.2 4.8
787 1 28.8 25.6 3.2
788 2 30.4 27.2 4.8
789 2 32.0 25.6 3.2
790 1 33.6 27.2 4.8
791 2 35.2 25.6 3.2
792 1 36.8 27.2 4.8
793 3 38.4 25.6 3.2
794 1 40.0 27.2 4.8
795 2 41.6 25.6 3.2
796 1 43.2 27.2 4.8
797 1 44.8 25.6 3.2
798 1 46.4 27.2 4.8
799 2 48.0 25.6 3.2
800 2 49.6 27.2 4.8
801 2 0.0 28.8 3.2
802 1 1.6 30.4 4.8
803 3 3.2 28.8 3.2
804 1 4.8 30.4 4.8
805 3 6.4 28.8 3.2
806 2 8.0 30.4 4.8
807 2 9.6 28.8 3.2
808 2 11.2 30.4 4.8
809 2 12.8 28.8 3.2
810 1 14.4 30.4 4.8
811 2 16.0 28.8 3.2
812 1 17.6 30.4 4.8
813 3 19.2 28.8 3.2
814 1 20.8 30.4 4.8
815 2 22.4 28.8 3.2
816 2 24.0 30.4 4.8
817 1 25.6 28.8 3.2
818 2 27.2 30.4 4.8
819 1 28.8 28.8 3.2
820 1 30.4 30.4 4.8
821 3 32.0 28.8 3.2
822 1 33.6 30.4 4.8
823 3 35.2 28.8 3.2
824 1 36.8 30.4 4.8
825 2 38.4 28.8 3.2
826 2 40.0 30.4 4.8
827 2 41.6 28.8 3.2
828 2 43.2 30.4 4.8
829 1 44.8 28.8 3.2
830 2 46.4 30.4 4.8
831 2 48.0 28.8 3.2
832 1 49.6 30.4 4.8
833 1 0.0 32.0 3.2
834 1 1.6 33.6 4.8
835 3 3.2 32.0 3.2
836 1 4.8 33.6 4.8
837 3 6.4 32.0 3.2
838 3 8.0 33.6 4.8
839 2 9.6 32.0 3.2
840 2 11.2 33.6 4.8
841 2 12.8 32.0 3.2
842 1 14.4 33.6 4.8
843 3 16.0 32.0 3.2
844 1 17.6 33.6 4.8
845 2 19.2 32.0 3.2
846 2 20.8 33.6 4.8
847 2 22.4 32.0 3.2
848 2 24.0 33.6 4.8
849 1 25.6 32.0 3.2
850 3 27.2 33.6 4.8
851 2 28.8 32.0 3.2
852 2 30.4 33.6 4.8
853 2 32.0 32.0 3.2
854 2 33.6 33.6 4.8
855 2 35.2 32.0 3.2
856 2 36.8 33.6 4.8
857 1 38.4 32.0 3.2
858 1 40.0 33.6 4.8
859 1 41.6 32.0 3.2
860 1 43.2 33.6 4.8
861 1 44.8 32.0 3.2
862 1 46.4 33.6 4.8
863 2 48.0 32.0 3.2
864 1 49.6 33.6 4.8
865 2 0.0 35.2 3.2
866 1 1.6 36.8 4.8
867 3 3.2 35.2 3.2
868 1 4.8 36.8 4.8
869 3 6.4 35.2 3.2
870 3 8.0 36.8 4.8
871 2 9.6 35.2 3.2
872 2 11.2 36.8 4.8
873 3 12.8 35.2 3.2
874 1 14.4 36.8 4.8
875 2 16.0 35.2 3.2
876 2 17.6 36.8 4.8
877 2 19.2 35.2 3.2
878 2 20.8 36.8 4.8
879 1 22.4 35.2 3.2
880 2 24.0 36.8 4.8
881 1 25.6 35.2 3.2
882 2 27.2 36.8 4.8
883 1 28.8 35.2 3.2
884 3 30.4 36.8 4.8
885 2 32.0 35.2 3.2
886 2 33.6 36.8 4.8
887 2 35.2 35.2 3.2
888 2 36.8 36.8 4.8
889 1 38.4 35.2 3.2
890 2 40.0 36.8 4.8
891 2 41.6 35.2 3.2
892 1 43.2 36.8 4.8
893 2 44.8 35.2 3.2
894 1 46.4 36.8 4.8
895 2 48.0 35.2 3.2
896 2 49.6 36.8 4.8
897 3 0.0 38.4 3.2
898 1 1.6 40.0 4.8
899 3 3.2 38.4 3.2
900 1 4.8 40.0 4.8
901 2 6.4 38.4 3.2
902 2 8.0 40.0 4.8
903 1 9.6 38.4 3.2
904 2 11.2 40.0 4.8
905 1 12.8 38.4 3.2
906 2 14.4 40.0 4.8
907 2 16.0 38.4 3.2
908 1 17.6 40.0 4.8
909 1 19.2 38.4 3.2
910 2 20.8 40.0 4.8
911 1 22.4 38.4 3.2
912 2 24.0 40.0 4.8
913 1 25.6 38.4 3.2
914 3 27.2 40.0 4.8
915 1 28.8 38.4 3.2
916 2 30.4 40.0 4.8
917 2 32.0 38.4 3.2
918 2 33.6 40.0 4.8
919 2 35.2 38.4 3.2
920 2 36.8 40.0 4.8
921 1 38.4 38.4 3.2
922 2 40.0 40.0 4.8
923 1 41.6 38.4 3.2
924 1 43.2 40.0 4.8
925 2 44.8 38.4 3.2
926 1 46.4 40.0 4.8
927 2 48.0 38.4 3.2
928 2 49.6 40.0 4.8
929 3 0.0 41.6 3.2
930 1 1.6 43.2 4.8
931 2 3.2 41.6 3.2
932 2 4.8 43.2 4.8
933 2 6.4 41.6 3.2
934 2 8.0 43.2 4.8
935 2 9.6 41.6 3.2
936 2 11.2 43.2 4.8
937 1 12.8 41.6 3.2
938 2 14.4 43.2 4.8
939 1 16.0 41.6 3.2
940 2 17.6 43.2 4.8
941 1 19.2 41.6 3.2
942 2 20.8 43.2 4.8
943 1 22.4 41.6 3.2
944 2 24.0 43.2 4.8
945 1 25.6 41.6 3.2
946 2 27.2 43.2 4.8
947 1 28.8 41.6 3.2
948 2 30.4 43.2 4.8
949 1 32.0 41.6 3.2
950 2 33.6 43.2 4.8
951 1 35.2 41.6 3.2
952 2 36.8 43.2 4.8
953 2 38.4 41.6 3.2
954 1 40.0 43.2 4.8
955 1 41.6 41.6 3.2
956 1 43.2 43.2 4.8
957 2 44.8 41.6 3.2
958 1 46.4 43.2 4.8
959 2 48.0 41.6 3.2
960 2 49.6 43.2 4.8
961 2 0.0 44.8 3.2
962 1 1.6 46.4 4.8
963 2 3.2 44.8 3.2
964 2 4.8 46.4 4.8
965 1 6.4 44.8 3.2
966 2 8.0 46.4 4.8
967 1 9.6 44.8 3.2
968 3 11.2 46.4 4.8
969 1 12.8 44.8 3.2
970 2 14.4 46.4 4.8
971 1 16.0 44.8 3.2
972 2 17.6 46.4 4.8
973 1 19.2 44.8 3.2
974 2 20.8 46.4 4.8
975 1 22.4 44.8 3.2
976 2 24.0 46.4 4.8
977 1 25.6 44.8 3.2
978 1 27.2 46.4 4.8
979 2 28.8 44.8 3.2
980 1 30.4 46.4 4.8
981 2 32.0 44.8 3.2
982 1 33.6 46.4 4.8
983 2 35.2 44.8 3.2
984 1 36.8 46.4 4.8
985 2 38.4 44.8 3.2
986 1 40.0 46.4 4.8
987 2 41.6 44.8 3.2
988 1 43.2 46.4 4.8
989 2 44.8 44.8 3.2
990 2 46.4 46.4 4.8
991 2 48.0 44.8 3.2
992 2 49.6 46.4 4.8
993 2 0.0 48.0 3.2
994 2 1.6 49.6 4.8
995 1 3.2 48.0 3.2
996 2 4.8 49.6 4.8
997 2 6.4 48.0 3.2
998 2 8.0 49.6 4.8
999 1 9.6 48.0 3.2
1000 2 11.2 49.6 4.8
1001 1 12.8 48.0 3.2
1002 1 14.4 49.6 4.8
1003 1 16.0 48.0 3.2
1004 2 17.6 49.6 4.8
1005 1 19.2 48.0 3.2
1006 2 20.8 49.6 4.8
1007 1 22.4 48.0 3.2
1008 1 24.0 49.6 4.8
1009 2 25.6 48.0 3.2
1010 1 27.2 49.6 4.8
1011 1 28.8 48.0 3.2
1012 2 30.4 49.6 4.8
1013 3 32.0 48.0 3.2
1014 1 33.6 49.6 4.8
1015 2 35.2 48.0 3.2
1016 1 36.8 49.6 4.8
1017 2 38.4 48.0 3.2
1018 1 40.0 49.6 4.8
1019 3 41.6 48.0 3.2
1020 1 43.2 49.6 4.8
1021 2 44.8 48.0 3.2
1022 1 46.4 49.6 4.8
1023 2 48.0 48.0 3.2
1024 2 49.6 49.6 4.8
1025 1 0.0 0.0 6.4
1026 3 1.6 1.6 8.0
1027 1 3.2 0.0 6.4
1028 2 4.8 1.6 8.0
1029 2 6.4 0.0 6.4
1030 1 8.0 1.6 8.0
1031 1 9.6 0.0 6.4
1032 1 11.2 1.6 8.0
1033 2 12.8 0.0 6.4
1034 1 14.4 1.6 8.0
1035 2 16.0 0.0 6.4
1036 1 17.6 1.6 8.0
1037 2 19.2 0.0 6.4
1038 1 20.8 1.6 8.0
1039 3 22.4 0.0 6.4
1040 1 24.0 1.6 8.0
1041 2 25.6 0.0 6.4
1042 2 27.2 1.6 8.0
1043 3 28.8 0.0 6.4
1044 1 30.4 1.6 8.0
1045 3 32.0 0.0 6.4
1046 1 33.6 1.6 8.0
1047 2 35.2 0.0 6.4
1048 2 36.8 1.6 8.0
1049 2 38.4 0.0 6.4
1050 1 40.0 1.6 8.0
1051 2 41.6 0.0 6.4
1052 1 43.2 1.6 8.0
1053 3 44.8 0.0 6.4
1054 1 46.4 1.6 8.0
1055 2 48.0 0.0 6.4
1056 2 49.6 1.6 8.0
1057 1 0.0 3.2 6.4
1058 2 1.6 4.8 8.0
1059 1 3.2 3.2 6.4
1060 2 4.8 4.8 8.0
1061 1 6.4 3.2 6.4
1062 1 8.0 4.8 8.0
1063 2 9.6 3.2 6.4
1064 1 11.2 4.8 8.0
1065 2 12.8 3.2 6.4
1066 1 14.4 4.8 8.0
1067 2 16.0 3.2 6.4
1068 2 17.6 4.8 8.0
1069 2 19.2 3.2 6.4
1070 2 20.8 4.8 8.0
1071 2 22.4 3.2 6.4
1072 2 24.0 4.8 8.0
1073 2 25.6 3.2 6.4
1074 2 27.2 4.8 8.0
1075 2 28.8 3.2 6.4
1076 2 30.4 4.8 8.0
1077 2 32.0 3.2 6.4
1078 2 33.6 4.8 8.0
1079 2 35.2 3.2 6.4
1080 2 36.8 4.8 8.0
1081 2 38.4 3.2 6.4
1082 2 40.0 4.8 8.0
1083 2 41.6 3.2 6.4
1084 2 43.2 4.8 8.0
1085 2 44.8 3.2 6.4
1086 2 46.4 4.8 8.0
1087 1 48.0 3.2 6.4
1088 1 49.6 4.8 8.0
1089 2 0.0 6.4 6.4
1090 1 1.6 8.0 8.0
1091 2 3.2 6.4 6.4
1092 2 4.8 8.0 8.0
1093 1 6.4 6.4 6.4
1094 2 8.0 8.0 8.0
1095 2 9.6 6.4 6.4
1096 2 11.2 8.0 8.0
1097 1 12.8 6.4 6.4
1098 2 14.4 8.0 8.0
1099 1 16.0 6.4 6.4
1100 2 17.6 8.0 8.0
1101 1 19.2 6.4 6.4
1102 2 20.8 8.0 8.0
1103 1 22.4 6.4 6.4
1104 1 24.0 8.0 8.0
1105 1 25.6 6.4 6.4
1106 2 27.2 8.0 8.0
1107 1 28.8 6.4 6.4
1108 2 30.4 8.0 8.0
1109 1 32.0 6.4 6.4
1110 3 33.6 8.0 8.0
1111 2 35.2 6.4 6.4
1112 3 36.8 8.0 8.0
1113 2 38.4 6.4 6.4
1114 2 40.0 8.0 8.0
1115 2 41.6 6.4 6.4
1116 3 43.2 8.0 8.0
1117 1 44.8 6.4 6.4
1118 2 46.4 8.0 8.0
1119 2 48.0 6.4 6.4
1120 1 49.6 8.0 8.0
1121 3 0.0 9.6 6.4
1122 1 1.6 11.2 8.0
1123 2 3.2 9.6 6.4
1124 1 4.8 11.2 8.0
1125 1 6.4 9.6 6.4
1126 1 8.0 11.2 8.0
1127 2 9.6 9.6 6.4
1128 2 11.2 11.2 8.0
1129 1 12.8 9.6 6.4
1130 2 14.4 11.2 8.0
1131 1 16.0 9.6 6.4
1132 2 17.6 11.2 8.0
1133 2 19.2 9.6 6.4
1134 2 20.8 11.2 8.0
1135 3 22.4 9.6 6.4
1136 1 24.0 11.2 8.0
1137 3 25.6 9.6 6.4
1138 1 27.2 11.2 8.0
1139 2 28.8 9.6 6.4
1140 2 30.4 11.2 8.0
1141 1 32.0 9.6 6.4
1142 2 33.6 11.2 8.0
1143 2 35.2 9.6 6.4
1144 2 36.8 11.2 8.0
1145 2 38.4 9.6 6.4
1146 2 40.0 11.2 8.0
1147 2 41.6 9.6 6.4
1148 2 43.2 11.2 8.0
1149 1 44.8 9.6 6.4
1150 1 46.4 11.2 8.0
1151 3 48.0 9.6 6.4
1152 1 49.6 11.2 8.0
1153 3 0.0 12.8 6.4
1154 1 1.6 14.4 8.0
1155 3 3.2 12.8 6.4
1156 1 4.8 14.4 8.0
1157 2 6.4 12.8 6.4
1158 1 8.0 14.4 8.0
1159 2 9.6 12.8 6.4
1160 2 11.2 14.4 8.0
1161 1 12.8 12.8 6.4
1162 2 14.4 14.4 8.0
1163 1 16.0 12.8 6.4
1164 1 17.6 14.4 8.0
1165 2 19.2 12.8 6.4
1166 1 20.8 14.4 8.0
1167 2 22.4 12.8 6.4
1168 1 24.0 14.4 8.0
1169 2 25.6 12.8 6.4
1170 1 27.2 14.4 8.0
1171 3 28.8 12.8 6.4
1172 1 30.4 14.4 8.0
1173 2 32.0 12.8 6.4
1174 1 33.6 14.4 8.0
1175 2 35.2 12.8 6.4
1176 2 36.8 14.4 8.0
1177 2 38.4 12.8 6.4
1178 3 40.0 14.4 8.0
1179 1 41.6 12.8 6.4
1180 2 43.2 14.4 8.0
1181 2 44.8 12.8 6.4
1182 1 46.4 14.4 8.0
1183 3 48.0 12.8 6.4
1184 1 49.6 14.4 8.0
1185 3 0.0 16.0 6.4
1186 1 1.6 17.6 8.0
1187 3 3.2 16.0 6.4
1188 1 4.8 17.6 8.0
1189 3 6.4 16.0 6.4
1190 1 8.0 17.6 8.0
1191 2 9.6 16.0 6.4
1192 2 11.2 17.6 8.0
1193 1 12.8 16.0 6.4
1194 2 14.4 17.6 8.0
1195 1 16.0 16.0 6.4
1196 2 17.6 17.6 8.0
1197 2 19.2 16.0 6.4
1198 1 20.8 17.6 8.0
1199 3 22.4 16.0 6.4
1200 1 24.0 17.6 8.0
1201 3 25.6 16.0 6.4
1202 1 27.2 17.6 8.0
1203 2 28.8 16.0 6.4
1204 2 30.4 17.6 8.0
1205 2 32.0 16.0 6.4
1206 2 33.6 17.6 8.0
1207 1 35.2 16.0 6.4
1208 1 36.8 17.6 8.0
1209 2 38.4 16.0 6.4
1210 2 40.0 17.6 8.0
1211 2 41.6 16.0 6.4
1212 2 43.2 17.6 8.0
1213 2 44.8 16.0 6.4
1214 1 46.4 17.6 8.0
1215 3 48.0 16.0 6.4
1216 1 49.6 17.6 8.0
1217 3 0.0 19.2 6.4
1218 1 1.6 20.8 8.0
1219 3 3.2 19.2 6.4
1220 1 4.8 20.8 8.0
1221 2 6.4 19.2 6.4
1222 2 8.0 20.8 8.0
1223 1 9.6 19.2 6.4
1224 2 11.2 20.8 8.0
1225 1 12.8 19.2 6.4
1226 1 14.4 20.8 8.0
1227 2 16.0 19.2 6.4
1228 1 17.6 20.8 8.0
1229 2 19.2 19.2 6.4
1230 1 20.8 20.8 8.0
1231 2 22.4 19.2 6.4
1232 2 24.0 20.8 8.0
1233 2 25.6 19.2 6.4
1234 2 27.2 20.8 8.0
1235 2 28.8 19.2 6.4
1236 2 30.4 20.8 8.0
1237 2 32.0 19.2 6.4
1238 2 33.6 20.8 8.0
1239 1 35.2 19.2 6.4
1240 1 36.8 20.8 8.0
1241 2 38.4 19.2 6.4
1242 1 40.0 20.8 8.0
1243 2 41.6 19.2 6.4
1244 1 43.2 20.8 8.0
1245 2 44.8 19.2 6.4
1246 2 46.4 20.8 8.0
1247 3 48.0 19.2 6.4
1248 1 49.6 20.8 8.0
1249 3 0.0 22.4 6.4
1250 1 1.6 24.0 8.0
1251 3 3.2 22.4 6.4
1252 1 4.8 24.0 8.0
1253 2 6.4 22.4 6.4
1254 2 8.0 24.0 8.0
1255 1 9.6 22.4 6.4
1256 2 11.2 24.0 8.0
1257 2 12.8 22.4 6.4
1258 1 14.4 24.0 8.0
1259 2 16.0 22.4 6.4
1260 2 17.6 24.0 8.0
1261 1 19.2 22.4 6.4
1262 1 20.8 24.0 8.0
1263 2 22.4 22.4 6.4
1264 2 24.0 24.0 8.0
1265 1 25.6 22.4 6.4
1266 2 27.2 24.0 8.0
1267 1 28.8 22.4 6.4
1268 2 30.4 24.0 8.0
1269 1 32.0 22.4 6.4
1270 3 33.6 24.0 8.0
1271 1 35.2 22.4 6.4
1272 1 36.8 24.0 8.0
1273 2 38.4 22.4 6.4
1274 1 40.0 24.0 8.0
1275 2 41.6 22.4 6.4
1276 1 43.2 24.0 8.0
1277 2 44.8 22.4 6.4
1278 2 46.4 24.0 8.0
1279 2 48.0 22.4 6.4
1280 1 49.6 24.0 8.0
1281 2 0.0 25.6 6.4
1282 1 1.6 27.2 8.0
1283 2 3.2 25.6 6.4
1284 1 4.8 27.2 8.0
1285 1 6.4 25.6 6.4
1286 2 8.0 27.2 8.0
1287 1 9.6 25.6 6.4
1288 2 11.2 27.2 8.0
1289 2 12.8 25.6 6.4
1290 1 14.4 27.2 8.0
1291 2 16.0 25.6 6.4
1292 1 17.6 27.2 8.0
1293 2 19.2 25.6 6.4
1294 1 20.8 27.2 8.0
1295 2 22.4 25.6 6.4
1296 2 24.0 27.2 8.0
1297 1 25.6 25.6 6.4
1298 2 27.2 27.2 8.0
1299 1 28.8 25.6 6.4
1300 2 30.4 27.2 8.0
1301 2 32.0 25.6 6.4
1302 1 33.6 27.2 8.0
1303 3 35.2 25.6 6.4
1304 1 36.8 27.2 8.0
1305 3 38.4 25.6 6.4
1306 1 40.0 27.2 8.0
1307 2 41.6 25.6 6.4
1308 1 43.2 27.2 8.0
1309 1 44.8 25.6 6.4
1310 2 46.4 27.2 8.0
1311 2 48.0 25.6 6.4
1312 1 49.6 27.2 8.0
1313 3 0.0 28.8 6.4
1314 1 1.6 30.4 8.0
1315 2 3.2 28.8 6.4
1316 1 4.8 30.4 8.0
1317 2 6.4 28.8 6.4
1318 2 8.0 30.4 8.0
1319 1 9.6 28.8 6.4
1320 2 11.2 30.4 8.0
1321 2 12.8 28.8 6.4
1322 1 14.4 30.4 8.0
1323 2 16.0 28.8 6.4
1324 1 17.6 30.4 8.0
1325 2 19.2 28.8 6.4
1326 2 20.8 30.4 8.0
1327 2 22.4 28.8 6.4
1328 2 24.0 30.4 8.0
1329 1 25.6 28.8 6.4
1330 2 27.2 30.4 8.0
1331 1 28.8 28.8 6.4
1332 1 30.4 30.4 8.0
1333 2 32.0 28.8 6.4
1334 1 33.6 30.4 8.0
1335 3 35.2 28.8 6.4
1336 1 36.8 30.4 8.0
1337 2 38.4 28.8 6.4
1338 1 40.0 30.4 8.0
1339 2 41.6 28.8 6.4
1340 1 43.2 30.4 8.0
1341 2 44.8 28.8 6.4
1342 1 46.4 30.4 8.0
1343 2 48.0 28.8 6.4
1344 1 49.6 30.4 8.0
1345 2 0.0 32.0 6.4
1346 1 1.6 33.6 8.0
1347 2 3.2 32.0 6.4
1348 1 4.8 33.6 8.0
1349 2 6.4 32.0 6.4
1350 2 8.0 33.6 8.0
1351 1 9.6 32.0 6.4
1352 2 11.2 33.6 8.0
1353 2 12.8 32.0 6.4
1354 1 14.4 33.6 8.0
1355 2 16.0 32.0 6.4
1356 2 17.6 33.6 8.0
1357 2 19.2 32.0 6.4
1358 2 20.8 33.6 8.0
1359 2 22.4 32.0 6.4
1360 2 24.0 33.6 8.0
1361 1 25.6 32.0 6.4
1362 3 27.2 33.6 8.0
1363 2 28.8 32.0 6.4
1364 2 30.4 33.6 8.0
1365 1 32.0 32.0 6.4
1366 2 33.6 33.6 8.0
1367 2 35.2 32.0 6.4
1368 1 36.8 33.6 8.0
1369 2 38.4 32.0 6.4
1370 1 40.0 33.6 8.0
1371 2 41.6 32.0 6.4
1372 1 43.2 33.6 8.0
1373 2 44.8 32.0 6.4
1374 1 46.4 33.6 8.0
1375 2 48.0 32.0 6.4
1376 1 49.6 33.6 8.0
1377 2 0.0 35.2 6.4
1378 2 1.6 36.8 8.0
1379 2 3.2 35.2 6.4
1380 2 4.8 36.8 8.0
1381 2 6.4 35.2 6.4
1382 2 8.0 36.8 8.0
1383 1 9.6 35.2 6.4
1384 2 11.2 36.8 8.0
1385 2 12.8 35.2 6.4
1386 1 14.4 36.8 8.0
1387 2 16.0 35.2 6.4
1388 2 17.6 36.8 8.0
1389 1 19.2 35.2 6.4
1390 2 20.8 36.8 8.0
1391 1 22.4 35.2 6.4
1392 2 24.0 36.8 8.0
1393 2 25.6 35.2 6.4
1394 2 27.2 36.8 8.0
1395 1 28.8 35.2 6.4
1396 2 30.4 36.8 8.0
1397 1 32.0 35.2 6.4
1398 1 33.6 36.8 8.0
1399 2 35.2 35.2 6.4
1400 1 36.8 36.8 8.0
1401 2 38.4 35.2 6.4
1402 1 40.0 36.8 8.0
1403 3 41.6 35.2 6.4
1404 1 43.2 36.8 8.0
1405 2 44.8 35.2 6.4
1406 1 46.4 36.8 8.0
1407 2 48.0 35.2 6.4
1408 2 49.6 36.8 8.0
1409 2 0.0 38.4 6.4
1410 2 1.6 40.0 8.0
1411 2 3.2 38.4 6.4
1412 2 4.8 40.0 8.0
1413 1 6.4 38.4 6.4
1414 2 8.0 40.0 8.0
1415 1 9.6 38.4 6.4
1416 2 11.2 40.0 8.0
1417 2 12.8 38.4 6.4
1418 1 14.4 40.0 8.0
1419 2 16.0 38.4 6.4
1420 1 17.6 40.0 8.0
1421 2 19.2 38.4 6.4
1422 2 20.8 40.0 8.0
1423 1 22.4 38.4 6.4
1424 2 24.0 40.0 8.0
1425 1 25.6 38.4 6.4
1426 2 27.2 40.0 8.0
1427 1 28.8 38.4 6.4
1428 2 30.4 40.0 8.0
1429 1 32.0 38.4 6.4
1430 1 33.6 40.0 8.0
1431 2 35.2 38.4 6.4
1432 1 36.8 40.0 8.0
1433 2 38.4 38.4 6.4
1434 2 40.0 40.0 8.0
1435 2 41.6 38.4 6.4
1436 1 43.2 40.0 8.0
1437 2 44.8 38.4 6.4
1438 1 46.4 40.0 8.0
1439 1 48.0 38.4 6.4
1440 2 49.6 40.0 8.0
1441 2 0.0 41.6 6.4
1442 1 1.6 43.2 8.0
1443 2 3.2 41.6 6.4
1444 1 4.8 43.2 8.0
1445 1 6.4 41.6 6.4
1446 2 8.0 43.2 8.0
1447 1 9.6 41.6 6.4
1448 2 11.2 43.2 8.0
1449 2 12.8 41.6 6.4
1450 1 14.4 43.2 8.0
1451 2 16.0 41.6 6.4
1452 1 17.6 43.2 8.0
1453 2 19.2 41.6 6.4
1454 2 20.8 43.2 8.0
1455 1 22.4 41.6 6.4
1456 2 24.0 43.2 8.0
1457 1 25.6 41.6 6.4
1458 1 27.2 43.2 8.0
1459 3 28.8 41.6 6.4
1460 1 30.4 43.2 8.0
1461 1 32.0 41.6 6.4
1462 1 33.6 43.2 8.0
1463 1 35.2 41.6 6.4
1464 2 36.8 43.2 8.0
1465 2 38.4 41.6 6.4
1466 3 40.0 43.2 8.0
1467 2 41.6 41.6 6.4
1468 2 43.2 43.2 8.0
1469 2 44.8 41.6 6.4
1470 2 46.4 43.2 8.0
1471 2 48.0 41.6 6.4
1472 2 49.6 43.2 8.0
1473 2 0.0 44.8 6.4
1474 2 1.6 46.4 8.0
1475 2 3.2 44.8 6.4
1476 2 4.8 46.4 8.0
1477 2 6.4 44.8 6.4
1478 2 8.0 46.4 8.0
1479 1 9.6 44.8 6.4
1480 2 11.2 46.4 8.0
1481 2 12.8 44.8 6.4
1482 1 14.4 46.4 8.0
1483 2 16.0 44.8 6.4
1484 1 17.6 46.4 8.0
1485 2 19.2 44.8 6.4
1486 1 20.8 46.4 8.0
1487 2 22.4 44.8 6.4
1488 1 24.0 46.4 8.0
1489 1 25.6 44.8 6.4
1490 1 27.2 46.4 8.0
1491 2 28.8 44.8 6.4
1492 1 30.4 46.4 8.0
1493 2 32.0 44.8 6.4
1494 1 33.6 46.4 8.0
1495 2 35.2 44.8 6.4
1496 1 36.8 46.4 8.0
1497 2 38.4 44.8 6.4
1498 1 40.0 46.4 8.0
1499 2 41.6 44.8 6.4
1500 1 43.2 46.4 8.0