ITEM: TIMESTEP
0
ITEM: NUMBER OF ATOMS
8192
ITEM: BOX BOUNDS pp pp pp
0.0000000000000000e+00 5.1200000000000003e+01
0.0000000000000000e+00 5.1200000000000003e+01
0.0000000000000000e+00 5.1200000000000003e+01
ITEM: ATOMS id type x y z c_eng
1 1 0 0 0 -11.6428
2 2 1.6 1.6 1.6 -9.69064
3 1 3.2 0 0 -11.6666
4 2 4.8 1.6 1.6 -9.65995
5 1 6.4 0 0 -11.6666
6 2 8 1.6 1.6 -9.6562
7 2 9.6 0 0 -9.71101
8 3 11.2 1.6 1.6 -11.2404
9 1 12.8 0 0 -11.7836
10 3 14.4 1.6 1.6 -11.0832
11 1 16 0 0 -11.722
12 2 17.6 1.6 1.6 -9.7278
13 1 19.2 0 0 -11.7326
14 3 20.8 1.6 1.6 -11.1459
15 1 22.4 0 0 -11.6907
16 2 24 1.6 1.6 -9.66059
17 1 25.6 0 0 -11.6971
18 2 27.2 1.6 1.6 -9.71041
19 1 28.8 0 0 -11.6955
20 2 30.4 1.6 1.6 -9.75112
21 1 32 0 0 -11.6781
22 1 33.6 1.6 1.6 -11.7022
23 2 35.2 0 0 -9.72121
24 1 36.8 1.6 1.6 -11.7564
25 3 38.4 0 0 -11.2276
26 1 40 1.6 1.6 -11.7508
27 2 41.6 0 0 -9.61516
28 1 43.2 1.6 1.6 -11.6971
29 2 44.8 0 0 -9.78056
30 2 46.4 1.6 1.6 -9.80742
31 2 48 0 0 -9.80668
32 2 49.6 1.6 1.6 -9.69462
33 2 0 3.2 0 -9.80726
34 2 1.6 4.8 1.6 -9.76843
35 2 3.2 3.2 0 -9.7338
36 2 4.8 4.8 1.6 -9.69949
37 1 6.4 3.2 0 -11.6334
38 2 8 4.8 1.6 -9.58296
39 1 9.6 3.2 0 -11.7205
40 3 11.2 4.8 1.6 -11.0397
41 1 12.8 3.2 0 -11.7833
42 2 14.4 4.8 1.6 -9.61528
43 1 16 3.2 0 -11.6885
44 2 17.6 4.8 1.6 -9.65983
45 1 19.2 3.2 0 -11.6955
46 2 20.8 4.8 1.6 -9.73724
47 1 22.4 3.2 0 -11.6462
48 2 24 4.8 1.6 -9.63281
49 1 25.6 3.2 0 -11.6435
50 2 27.2 4.8 1.6 -9.78363
51 2 28.8 3.2 0 -9.80339
52 1 30.4 4.8 1.6 -11.7949
53 2 32 3.2 0 -9.79023
54 1 33.6 4.8 1.6 -11.7583
55 2 35.2 3.2 0 -9.78581
56 1 36.8 4.8 1.6 -11.7297
57 2 38.4 3.2 0 -9.69581
58 1 40 4.8 1.6 -11.6893
59 2 41.6 3.2 0 -9.58272
60 1 43.2 4.8 1.6 -11.6889
61 2 44.8 3.2 0 -9.72083
62 1 46.4 4.8 1.6 -11.669
63 2 48 3.2 0 -9.68923
64 1 49.6 4.8 1.6 -11.6172
65 2 0 6.4 0 -9.70002
66 1 1.6 8 1.6 -11.6886
67 1 3.2 6.4 0 -11.7159
68 2 4.8 8 1.6 -9.73706
69 1 6.4 6.4 0 -11.626
70 2 8 8 1.6 -9.62601
71 1 9.6 6.4 0 -11.6275
72 2 11.2 8 1.6 -9.58308
73 1 12.8 6.4 0 -11.6661
74 2 14.4 8 1.6 -9.58284
75 1 16 6.4 0 -11.6661
76 3 17.6 8 1.6 -11.0767
77 1 19.2 6.4 0 -11.7029
78 2 20.8 8 1.6 -9.74297
79 2 22.4 6.4 0 -9.69957
80 2 24 8 1.6 -9.79128
81 2 25.6 6.4 0 -9.70974
82 1 27.2 8 1.6 -11.6329
83 2 28.8 6.4 0 -9.72851
84 1 30.4 8 1.6 -11.7024
85 2 32 6.4 0 -9.78568
86 1 33.6 8 1.6 -11.7627
87 2 35.2 6.4 0 -9.78343
88 1 36.8 8 1.6 -11.6907
89 2 38.4 6.4 0 -9.68854
90 1 40 8 1.6 -11.6919
91 2 41.6 6.4 0 -9.61479
92 1 43.2 8 1.6 -11.723
93 2 44.8 6.4 0 -9.64829
94 1 46.4 8 1.6 -11.6916
95 2 48 6.4 0 -9.61808
96 1 49.6 8 1.6 -11.6607
97 2 0 9.6 0 -9.6916
98 1 1.6 11.2 1.6 -11.7501
99 2 3.2 9.6 0 -9.75343
100 1 4.8 11.2 1.6 -11.6469
101 1 6.4 9.6 0 -11.6706
102 2 8 11.2 1.6 -9.66913
103 1 9.6 9.6 0 -11.627
104 2 11.2 11.2 1.6 -9.58259
105 1 12.8 9.6 0 -11.6324
106 2 14.4 11.2 1.6 -9.61528
107 1 16 9.6 0 -11.6651
108 2 17.6 11.2 1.6 -9.65676
109 1 19.2 9.6 0 -11.7
110 2 20.8 11.2 1.6 -9.70058
111 1 22.4 9.6 0 -11.7053
112 2 24 11.2 1.6 -9.82916
113 2 25.6 9.6 0 -9.73295
114 2 27.2 11.2 1.6 -9.77913
115 1 28.8 9.6 0 -11.6004
116 2 30.4 11.2 1.6 -9.76079
117 2 32 9.6 0 -9.80624
118 2 33.6 11.2 1.6 -9.76688
119 2 35.2 9.6 0 -9.81132
120 1 36.8 11.2 1.6 -11.6968
121 3 38.4 9.6 0 -11.0829
122 1 40 11.2 1.6 -11.6582
123 3 41.6 9.6 0 -11.1262
124 1 43.2 11.2 1.6 -11.6897
125 3 44.8 9.6 0 -11.0826
126 1 46.4 11.2 1.6 -11.6897
127 2 48 9.6 0 -9.64578
128 1 49.6 11.2 1.6 -11.7208
129 3 0 12.8 0 -11.167
130 1 1.6 14.4 1.6 -11.7176
131 3 3.2 12.8 0 -11.1575
132 1 4.8 14.4 1.6 -11.7078
133 1 6.4 12.8 0 -11.6671
134 2 8 14.4 1.6 -9.76219
135 1 9.6 12.8 0 -11.6903
136 3 11.2 14.4 1.6 -11.0832
137 1 12.8 12.8 0 -11.6971
138 3 14.4 14.4 1.6 -11.1249
139 1 16 12.8 0 -11.6656
140 2 17.6 14.4 1.6 -9.65997
141 1 19.2 12.8 0 -11.6302
142 2 20.8 14.4 1.6 -9.70072
143 1 22.4 12.8 0 -11.6694
144 2 24 14.4 1.6 -9.75581
145 1 25.6 12.8 0 -11.7051
146 2 27.2 14.4 1.6 -9.75563
147 1 28.8 12.8 0 -11.6679
148 2 30.4 14.4 1.6 -9.7608
149 1 32 12.8 0 -11.657
150 1 33.6 14.4 1.6 -11.6747
151 2 35.2 12.8 0 -9.66793
152 1 36.8 14.4 1.6 -11.6889
153 2 38.4 12.8 0 -9.64852
154 1 40 14.4 1.6 -11.6616
155 2 41.6 12.8 0 -9.61504
156 1 43.2 14.4 1.6 -11.6671
157 3 44.8 12.8 0 -11.0832
158 1 46.4 14.4 1.6 -11.7205
159 3 48 12.8 0 -11.1654
160 1 49.6 14.4 1.6 -11.7532
161 2 0 16 0 -9.7464
162 1 1.6 17.6 1.6 -11.7321
163 2 3.2 16 0 -9.79662
164 2 4.8 17.6 1.6 -9.68949
165 2 6.4 16 0 -9.77897
166 2 8 17.6 1.6 -9.7518
167 1 9.6 16 0 -11.7296
168 2 11.2 17.6 1.6 -9.61528
169 1 12.8 16 0 -11.7289
170 3 14.4 17.6 1.6 -11.084
171 1 16 16 0 -11.6962
172 2 17.6 17.6 1.6 -9.72423
173 1 19.2 16 0 -11.6708
174 2 20.8 17.6 1.6 -9.75556
175 1 22.4 16 0 -11.6017
176 2 24 17.6 1.6 -9.69056
177 1 25.6 16 0 -11.6017
178 2 27.2 17.6 1.6 -9.78425
179 1 28.8 16 0 -11.7059
180 2 30.4 17.6 1.6 -9.76021
181 2 32 16 0 -9.67167
182 1 33.6 17.6 1.6 -11.6287
183 3 35.2 16 0 -11.0435
184 1 36.8 17.6 1.6 -11.6367
185 3 38.4 16 0 -11.1892
186 2 40 17.6 1.6 -9.80951
187 2 41.6 16 0 -9.7776
188 2 43.2 17.6 1.6 -9.73398
189 2 44.8 16 0 -9.69158
190 1 46.4 17.6 1.6 -11.7305
191 3 48 16 0 -11.1254
192 1 49.6 17.6 1.6 -11.7528
193 3 0 19.2 0 -11.1996
194 1 1.6 20.8 1.6 -11.7806
195 2 3.2 19.2 0 -9.78704
196 1 4.8 20.8 1.6 -11.6758
197 2 6.4 19.2 0 -9.76016
198 2 8 20.8 1.6 -9.70275
199 1 9.6 19.2 0 -11.6675
200 2 11.2 20.8 1.6 -9.70115
201 1 12.8 19.2 0 -11.6417
202 2 14.4 20.8 1.6 -9.72863
203 1 16 19.2 0 -11.5753
204 2 17.6 20.8 1.6 -9.70322
205 1 19.2 19.2 0 -11.6442
206 2 20.8 20.8 1.6 -9.81311
207 1 22.4 19.2 0 -11.6353
208 2 24 20.8 1.6 -9.79064
209 1 25.6 19.2 0 -11.6334
210 3 27.2 20.8 1.6 -11.1465
211 1 28.8 19.2 0 -11.6585
212 2 30.4 20.8 1.6 -9.796
213 1 32 19.2 0 -11.6104
214 2 33.6 20.8 1.6 -9.84217
215 1 35.2 19.2 0 -11.5445
216 2 36.8 20.8 1.6 -9.77082
217 2 38.4 19.2 0 -9.79298
218 2 40 20.8 1.6 -9.75533
219 2 41.6 19.2 0 -9.80695
220 1 43.2 20.8 1.6 -11.7385
221 2 44.8 19.2 0 -9.65957
222 1 46.4 20.8 1.6 -11.6911
223 2 48 19.2 0 -9.67735
224 1 49.6 20.8 1.6 -11.7846
225 3 0 22.4 0 -11.2051
226 1 1.6 24 1.6 -11.8124
227 3 3.2 22.4 0 -11.1654
228 1 4.8 24 1.6 -11.7504
229 2 6.4 22.4 0 -9.72395
230 1 8 24 1.6 -11.6715
231 2 9.6 22.4 0 -9.72786
232 1 11.2 24 1.6 -11.6291
233 2 12.8 22.4 0 -9.70064
234 1 14.4 24 1.6 -11.6971
235 2 16 22.4 0 -9.63285
236 1 17.6 24 1.6 -11.6666
237 2 19.2 22.4 0 -9.73286
238 1 20.8 24 1.6 -11.6307
239 2 22.4 22.4 0 -9.76042
240 1 24 24 1.6 -11.6003
241 1 25.6 22.4 0 -11.6286
242 2 27.2 24 1.6 -9.63333
243 1 28.8 22.4 0 -11.7007
244 2 30.4 24 1.6 -9.72401
245 2 32 22.4 0 -9.8288
246 2 33.6 24 1.6 -9.75497
247 2 35.2 22.4 0 -9.81365
248 1 36.8 24 1.6 -11.6321
249 2 38.4 22.4 0 -9.72984
250 1 40 24 1.6 -11.7063
251 2 41.6 22.4 0 -9.75767
252 2 43.2 24 1.6 -9.7129
253 3 44.8 22.4 0 -11.1202
254 1 46.4 24 1.6 -11.7316
255 3 48 22.4 0 -11.0843
256 1 49.6 24 1.6 -11.7205
257 2 0 25.6 0 -9.64566
259 3 3.2 25.6 0 -11.1251
261 2 6.4 25.6 0 -9.67735
263 3 9.6 25.6 0 -11.0832
265 2 12.8 25.6 0 -9.64829
267 2 16 25.6 0 -9.61773
269 2 19.2 25.6 0 -9.54835
271 2 22.4 25.6 0 -9.701
273 1 25.6 25.6 0 -11.6429
275 1 28.8 25.6 0 -11.6651
277 2 32 25.6 0 -9.7604
279 2 35.2 25.6 0 -9.69184
281 3 38.4 25.6 0 -11.0838
283 3 41.6 25.6 0 -11.1624
285 2 44.8 25.6 0 -9.82314
287 2 48 25.6 0 -9.72336
258 1 1.6 27.2 1.6 -11.7223
289 2 0 28.8 0 -9.58259
260 1 4.8 27.2 1.6 -11.7583
291 2 3.2 28.8 0 -9.67724
262 1 8 27.2 1.6 -11.7238
293 3 6.4 28.8 0 -11.1235
264 1 11.2 27.2 1.6 -11.6919
295 3 9.6 28.8 0 -11.1246
266 1 14.4 27.2 1.6 -11.6582
297 2 12.8 28.8 0 -9.61504
268 1 17.6 27.2 1.6 -11.6279
299 2 16 28.8 0 -9.58259
270 1 20.8 27.2 1.6 -11.6318
301 2 19.2 28.8 0 -9.62655
272 2 24 27.2 1.6 -9.76027
303 2 22.4 28.8 0 -9.76061
305 1 25.6 28.8 0 -11.6651
274 2 27.2 27.2 1.6 -9.72946
307 1 28.8 28.8 0 -11.6986
276 2 30.4 27.2 1.6 -9.7641
309 2 32 28.8 0 -9.786
278 1 33.6 27.2 1.6 -11.6747
311 3 35.2 28.8 0 -11.0846
280 1 36.8 27.2 1.6 -11.6911
313 2 38.4 28.8 0 -9.7217
282 1 40 27.2 1.6 -11.6975
315 2 41.6 28.8 0 -9.73259
284 1 43.2 27.2 1.6 -11.6986
317 2 44.8 28.8 0 -9.75337
286 2 46.4 27.2 1.6 -9.78599
319 2 48 28.8 0 -9.79966
288 1 49.6 27.2 1.6 -11.6666
290 1 1.6 30.4 1.6 -11.6897
321 2 0 32 0 -9.58247
292 1 4.8 30.4 1.6 -11.7844
323 3 3.2 32 0 -11.1651
294 1 8 30.4 1.6 -11.7572
325 3 6.4 32 0 -11.2048
296 1 11.2 30.4 1.6 -11.6265
327 2 9.6 32 0 -9.6916
298 1 14.4 30.4 1.6 -11.6279
329 2 12.8 32 0 -9.62587
300 1 17.6 30.4 1.6 -11.627
331 2 16 32 0 -9.68901
302 1 20.8 30.4 1.6 -11.6686
333 2 19.2 32 0 -9.70047
304 2 24 30.4 1.6 -9.78586
335 2 22.4 32 0 -9.77531
337 1 25.6 32 0 -11.6949
306 3 27.2 30.4 1.6 -11.076
339 1 28.8 32 0 -11.6651
308 2 30.4 30.4 1.6 -9.84093
341 2 32 32 0 -9.75545
310 1 33.6 30.4 1.6 -11.6962
343 2 35.2 32 0 -9.61528
312 1 36.8 30.4 1.6 -11.6977
345 2 38.4 32 0 -9.71764
314 2 40 30.4 1.6 -9.76066
347 2 41.6 32 0 -9.78797
316 1 43.2 30.4 1.6 -11.6881
349 1 44.8 32 0 -11.6609
318 2 46.4 30.4 1.6 -9.85513
351 2 48 32 0 -9.75509
320 1 49.6 30.4 1.6 -11.6318
322 1 1.6 33.6 1.6 -11.7511
353 2 0 35.2 0 -9.6916
324 1 4.8 33.6 1.6 -11.8415
355 3 3.2 35.2 0 -11.2045
326 1 8 33.6 1.6 -11.7489
357 3 6.4 35.2 0 -11.2397
328 1 11.2 33.6 1.6 -11.6729
359 2 9.6 35.2 0 -9.67477
330 1 14.4 33.6 1.6 -11.6603
361 2 12.8 35.2 0 -9.59874
332 1 17.6 33.6 1.6 -11.7291
363 3 16 35.2 0 -11.2151
334 1 20.8 33.6 1.6 -11.582
365 2 19.2 35.2 0 -9.78144
336 2 24 33.6 1.6 -9.70027
367 1 22.4 35.2 0 -11.7012
369 1 25.6 35.2 0 -11.7508
338 2 27.2 33.6 1.6 -9.64829
371 1 28.8 35.2 0 -11.7241
340 2 30.4 33.6 1.6 -9.78373
373 2 32 35.2 0 -9.77785
342 1 33.6 33.6 1.6 -11.6683
375 2 35.2 35.2 0 -9.59774
344 1 36.8 33.6 1.6 -11.6847
377 2 38.4 35.2 0 -9.80921
346 3 40 33.6 1.6 -11.31
379 2 41.6 35.2 0 -9.79698
348 2 43.2 33.6 1.6 -9.74184
381 2 44.8 35.2 0 -9.76902
350 2 46.4 33.6 1.6 -9.80378
383 2 48 35.2 0 -9.76412
352 1 49.6 33.6 1.6 -11.6656
354 1 1.6 36.8 1.6 -11.7806
385 2 0 38.4 0 -9.78159
356 1 4.8 36.8 1.6 -11.7803
387 3 3.2 38.4 0 -11.1667
358 1 8 36.8 1.6 -11.7648
389 2 6.4 38.4 0 -9.81139
360 1 11.2 36.8 1.6 -11.667
391 2 9.6 38.4 0 -9.76043
362 1 14.4 36.8 1.6 -11.6971
393 2 12.8 38.4 0 -9.69494
364 2 17.6 36.8 1.6 -9.82874
395 2 16 38.4 0 -9.78471
366 2 20.8 36.8 1.6 -9.70027
397 1 19.2 38.4 0 -11.7036
368 3 24 36.8 1.6 -11.166
399 1 22.4 38.4 0 -11.7508
401 1 25.6 38.4 0 -11.8124
370 3 27.2 36.8 1.6 -11.1664
403 1 28.8 38.4 0 -11.8113
372 3 30.4 36.8 1.6 -11.322
405 2 32 38.4 0 -9.75186
374 1 33.6 36.8 1.6 -11.6605
407 1 35.2 38.4 0 -11.5362
376 2 36.8 36.8 1.6 -9.70178
409 2 38.4 38.4 0 -9.69308
378 2 40 36.8 1.6 -9.78265
411 2 41.6 38.4 0 -9.77251
380 1 43.2 36.8 1.6 -11.6091
413 2 44.8 38.4 0 -9.76702
382 1 46.4 36.8 1.6 -11.7024
415 2 48 38.4 0 -9.73125
384 1 49.6 36.8 1.6 -11.7568
386 1 1.6 40 1.6 -11.7525
417 3 0 41.6 0 -11.1198
388 1 4.8 40 1.6 -11.7003
419 3 3.2 41.6 0 -11.2679
390 2 8 40 1.6 -9.76013
421 2 6.4 41.6 0 -9.8005
392 2 11.2 40 1.6 -9.7858
423 1 9.6 41.6 0 -11.7631
394 2 14.4 40 1.6 -9.78592
425 1 12.8 41.6 0 -11.759
396 2 17.6 40 1.6 -9.66253
427 1 16 41.6 0 -11.7297
398 2 20.8 40 1.6 -9.67758
429 1 19.2 41.6 0 -11.7205
400 3 24 40 1.6 -11.1245
431 1 22.4 41.6 0 -11.7846
433 1 25.6 41.6 0 -11.7846
402 2 27.2 40 1.6 -9.70694
435 1 28.8 41.6 0 -11.7522
404 3 30.4 40 1.6 -11.2596
437 1 32 41.6 0 -11.7079
406 2 33.6 40 1.6 -9.74369
439 2 35.2 41.6 0 -9.64205
408 2 36.8 40 1.6 -9.71373
441 2 38.4 41.6 0 -9.69159
410 2 40 40 1.6 -9.76137
443 2 41.6 41.6 0 -9.71022
412 2 43.2 40 1.6 -9.70018
445 2 44.8 41.6 0 -9.76665
414 1 46.4 40 1.6 -11.6656
447 2 48 41.6 0 -9.72936
416 1 49.6 40 1.6 -11.7266
418 1 1.6 43.2 1.6 -11.7294
449 2 0 44.8 0 -9.73153
420 2 4.8 43.2 1.6 -9.7788
451 2 3.2 44.8 0 -9.78438
422 2 8 43.2 1.6 -9.71926
453 1 6.4 44.8 0 -11.7338
424 3 11.2 43.2 1.6 -11.1243
455 1 9.6 44.8 0 -11.7844
426 3 14.4 43.2 1.6 -11.166
457 1 12.8 44.8 0 -11.8417
428 3 17.6 43.2 1.6 -11.1265
459 1 16 44.8 0 -11.8124
430 3 20.8 43.2 1.6 -11.0824
461 1 19.2 44.8 0 -11.7831
432 2 24 43.2 1.6 -9.67747
463 1 22.4 44.8 0 -11.7511
465 1 25.6 44.8 0 -11.7504
434 3 27.2 43.2 1.6 -11.1198
467 1 28.8 44.8 0 -11.6544
436 2 30.4 43.2 1.6 -9.69624
469 1 32 44.8 0 -11.5851
438 2 33.6 43.2 1.6 -9.70966
471 2 35.2 44.8 0 -9.63792
440 1 36.8 43.2 1.6 -11.6541
473 2 38.4 44.8 0 -9.5832
442 1 40 43.2 1.6 -11.565
475 2 41.6 44.8 0 -9.62625
444 1 43.2 43.2 1.6 -11.602
477 2 44.8 44.8 0 -9.69022
446 1 46.4 43.2 1.6 -11.6661
479 2 48 44.8 0 -9.73255
448 1 49.6 43.2 1.6 -11.694
450 2 1.6 46.4 1.6 -9.76028
481 1 0 48 0 -11.6299
452 2 4.8 46.4 1.6 -9.7553
483 1 3.2 48 0 -11.6651
454 3 8 46.4 1.6 -11.0395
485 1 6.4 48 0 -11.7013
456 3 11.2 46.4 1.6 -11.1663
487 1 9.6 48 0 -11.7301
458 3 14.4 46.4 1.6 -11.1654
489 1 12.8 48 0 -11.7508
460 3 17.6 46.4 1.6 -11.1246
491 1 16 48 0 -11.7511
462 2 20.8 46.4 1.6 -9.6459
493 1 19.2 48 0 -11.7205
464 2 24 46.4 1.6 -9.65947
495 1 22.4 48 0 -11.7183
497 1 25.6 48 0 -11.7594
466 2 27.2 46.4 1.6 -9.76058
499 1 28.8 48 0 -11.701
468 1 30.4 46.4 1.6 -11.5868
501 2 32 48 0 -9.69685
470 1 33.6 46.4 1.6 -11.6742
503 2 35.2 48 0 -9.7628
472 1 36.8 46.4 1.6 -11.6881
505 3 38.4 48 0 -11.1596
474 1 40 46.4 1.6 -11.6582
507 2 41.6 48 0 -9.58259
476 1 43.2 46.4 1.6 -11.5938
509 2 44.8 48 0 -9.65982
478 1 46.4 46.4 1.6 -11.6661
511 2 48 48 0 -9.70999
480 1 49.6 46.4 1.6 -11.6884
482 2 1.6 49.6 1.6 -9.66047
484 3 4.8 49.6 1.6 -10.995
486 2 8 49.6 1.6 -9.69167
488 2 11.2 49.6 1.6 -9.69027
490 2 14.4 49.6 1.6 -9.64829
492 2 17.6 49.6 1.6 -9.65933
494 2 20.8 49.6 1.6 -9.68877
496 2 24 49.6 1.6 -9.66417
498 2 27.2 49.6 1.6 -9.73194
500 2 30.4 49.6 1.6 -9.727
502 1 33.6 49.6 1.6 -11.702
504 1 36.8 49.6 1.6 -11.7833
506 1 40 49.6 1.6 -11.7508
508 1 43.2 49.6 1.6 -11.6671
510 2 46.4 49.6 1.6 -9.74947
512 2 49.6 49.6 1.6 -9.70379
513 1 0 0 3.2 -11.6318
514 2 1.6 1.6 4.8 -9.5486
515 1 3.2 0 3.2 -11.6265
516 2 4.8 1.6 4.8 -9.62627
517 1 6.4 0 3.2 -11.6666
518 2 8 1.6 4.8 -9.67476
519 1 9.6 0 3.2 -11.6923
520 3 11.2 1.6 4.8 -11.1984
521 1 12.8 0 3.2 -11.7249
522 2 14.4 1.6 4.8 -9.62817
523 1 16 0 3.2 -11.6429
524 1 17.6 1.6 4.8 -11.5911
525 2 19.2 0 3.2 -9.76656
526 2 20.8 1.6 4.8 -9.83884
527 1 22.4 0 3.2 -11.677
528 2 24 1.6 4.8 -9.72284
529 2 25.6 0 3.2 -9.67468
530 1 27.2 1.6 4.8 -11.6429
531 1 28.8 0 3.2 -11.5555
532 1 30.4 1.6 4.8 -11.6524
533 3 32 0 3.2 -11.121
534 1 33.6 1.6 4.8 -11.7522
535 2 35.2 0 3.2 -9.70739
536 1 36.8 1.6 4.8 -11.7607
537 3 38.4 0 3.2 -11.1651
538 1 40 1.6 4.8 -11.7504
539 3 41.6 0 3.2 -11.1249
540 1 43.2 1.6 4.8 -11.7289
541 2 44.8 0 3.2 -9.73154
542 2 46.4 1.6 4.8 -9.69457
543 1 48 0 3.2 -11.6422
544 2 49.6 1.6 4.8 -9.54944
545 1 0 3.2 3.2 -11.6094
546 2 1.6 4.8 4.8 -9.75582
547 1 3.2 3.2 3.2 -11.6697
548 2 4.8 4.8 4.8 -9.75176
549 1 6.4 3.2 3.2 -11.5921
550 2 8 4.8 4.8 -9.70046
551 1 9.6 3.2 3.2 -11.7249
552 2 11.2 4.8 4.8 -9.76232
553 1 12.8 3.2 3.2 -11.7213
554 2 14.4 4.8 4.8 -9.6268
555 1 16 3.2 3.2 -11.5978
556 2 17.6 4.8 4.8 -9.63277
557 2 19.2 3.2 3.2 -9.76685
558 2 20.8 4.8 4.8 -9.68282
559 1 22.4 3.2 3.2 -11.6976
560 2 24 4.8 4.8 -9.69152
561 1 25.6 3.2 3.2 -11.6522
562 2 27.2 4.8 4.8 -9.72957
563 2 28.8 3.2 3.2 -9.76029
564 1 30.4 4.8 4.8 -11.7535
565 3 32 3.2 3.2 -11.2018
566 1 33.6 4.8 4.8 -11.759
567 3 35.2 3.2 3.2 -11.126
568 1 36.8 4.8 4.8 -11.7596
569 3 38.4 3.2 3.2 -11.1257
570 1 40 4.8 4.8 -11.76
571 3 41.6 3.2 3.2 -11.1262
572 1 43.2 4.8 4.8 -11.7631
573 2 44.8 3.2 3.2 -9.76209
574 2 46.4 4.8 4.8 -9.79511
575 1 48 3.2 3.2 -11.6056
576 2 49.6 4.8 4.8 -9.66168
577 2 0 6.4 3.2 -9.76277
578 1 1.6 8 4.8 -11.7345
579 2 3.2 6.4 3.2 -9.75487
580 2 4.8 8 4.8 -9.80339
581 1 6.4 6.4 3.2 -11.7048
582 2 8 8 4.8 -9.81421
583 1 9.6 6.4 3.2 -11.6651
584 2 11.2 8 4.8 -9.70047
585 1 12.8 6.4 3.2 -11.6671
586 2 14.4 8 4.8 -9.59833
587 1 16 6.4 3.2 -11.6265
588 2 17.6 8 4.8 -9.66615
589 1 19.2 6.4 3.2 -11.6312
590 1 20.8 8 4.8 -11.5618
591 1 22.4 6.4 3.2 -11.5994
592 2 24 8 4.8 -9.6866
593 1 25.6 6.4 3.2 -11.628
594 1 27.2 8 4.8 -11.68
595 3 28.8 6.4 3.2 -11.185
596 2 30.4 8 4.8 -9.76618
597 3 32 6.4 3.2 -11.2011
598 1 33.6 8 4.8 -11.7627
599 3 35.2 6.4 3.2 -11.1262
600 1 36.8 8 4.8 -11.7262
601 2 38.4 6.4 3.2 -9.67758
602 1 40 8 4.8 -11.6955
603 3 41.6 6.4 3.2 -11.0832
604 1 43.2 8 4.8 -11.6962
605 3 44.8 6.4 3.2 -11.1607
606 1 46.4 8 4.8 -11.7261
607 3 48 6.4 3.2 -11.1125
608 1 49.6 8 4.8 -11.7266
609 3 0 9.6 3.2 -11.0829
610 1 1.6 11.2 4.8 -11.7808
611 2 3.2 9.6 3.2 -9.75537
612 1 4.8 11.2 4.8 -11.7349
613 2 6.4 9.6 3.2 -9.75507
614 2 8 11.2 4.8 -9.81275
615 1 9.6 9.6 3.2 -11.6691
616 2 11.2 11.2 4.8 -9.75255
617 1 12.8 9.6 3.2 -11.627
618 3 14.4 11.2 4.8 -11.0406
619 1 16 9.6 3.2 -11.6954
620 2 17.6 11.2 4.8 -9.73181
621 2 19.2 9.6 3.2 -9.7204
622 1 20.8 11.2 4.8 -11.6432
623 2 22.4 9.6 3.2 -9.81659
624 1 24 11.2 4.8 -11.724
625 3 25.6 9.6 3.2 -11.2052
626 1 27.2 11.2 4.8 -11.6596
627 2 28.8 9.6 3.2 -9.77324
628 1 30.4 11.2 4.8 -11.6686
629 2 32 9.6 3.2 -9.82358
630 1 33.6 11.2 4.8 -11.7012
631 3 35.2 9.6 3.2 -11.12
632 1 36.8 11.2 4.8 -11.6656
633 2 38.4 9.6 3.2 -9.61516
634 1 40 11.2 4.8 -11.5657
635 2 41.6 9.6 3.2 -9.61552
636 1 43.2 11.2 4.8 -11.5663
637 2 44.8 9.6 3.2 -9.61516
638 1 46.4 11.2 4.8 -11.5938
639 2 48 9.6 3.2 -9.61504
640 1 49.6 11.2 4.8 -11.7187
641 3 0 12.8 3.2 -11.1654
642 1 1.6 14.4 4.8 -11.7811
643 3 3.2 12.8 3.2 -11.1265
644 1 4.8 14.4 4.8 -11.7289
645 2 6.4 12.8 3.2 -9.72801
646 2 8 14.4 4.8 -9.7904
647 1 9.6 12.8 3.2 -11.7303
648 3 11.2 14.4 4.8 -11.1627
649 1 12.8 12.8 3.2 -11.7508
650 3 14.4 14.4 4.8 -11.1663
651 1 16 12.8 3.2 -11.6885
652 2 17.6 14.4 4.8 -9.73172
653 1 19.2 12.8 3.2 -11.6291
654 1 20.8 14.4 4.8 -11.6444
655 2 22.4 12.8 3.2 -9.69391
656 1 24 14.4 4.8 -11.6656
657 2 25.6 12.8 3.2 -9.78409
658 1 27.2 14.4 4.8 -11.6313
659 2 28.8 12.8 3.2 -9.75552
660 1 30.4 14.4 4.8 -11.6651
661 2 32 12.8 3.2 -9.69973
662 1 33.6 14.4 4.8 -11.6905
663 2 35.2 12.8 3.2 -9.69129
664 1 36.8 14.4 4.8 -11.6265
665 2 38.4 12.8 3.2 -9.54847
666 1 40 14.4 4.8 -11.5657
667 2 41.6 12.8 3.2 -9.47585
668 1 43.2 14.4 4.8 -11.5657
669 2 44.8 12.8 3.2 -9.58296
670 1 46.4 14.4 4.8 -11.6275
671 2 48 12.8 3.2 -9.6459
672 1 49.6 14.4 4.8 -11.7245
673 2 0 16 3.2 -9.67712
674 1 1.6 17.6 4.8 -11.7508
675 2 3.2 16 3.2 -9.69148
676 1 4.8 17.6 4.8 -11.6752
677 2 6.4 16 3.2 -9.7604
678 2 8 17.6 4.8 -9.70088
679 1 9.6 16 3.2 -11.6967
680 2 11.2 17.6 4.8 -9.61516
681 1 12.8 16 3.2 -11.7811
682 3 14.4 17.6 4.8 -11.2016
683 1 16 16 3.2 -11.759
684 2 17.6 17.6 4.8 -9.79001
685 2 19.2 16 3.2 -9.75556
686 1 20.8 17.6 4.8 -11.7019
687 2 22.4 16 3.2 -9.78638
688 1 24 17.6 4.8 -11.7019
689 2 25.6 16 3.2 -9.75554
690 1 27.2 17.6 4.8 -11.6448
691 2 28.8 16 3.2 -9.75547
692 1 30.4 17.6 4.8 -11.7009
693 2 32 16 3.2 -9.82362
694 2 33.6 17.6 4.8 -9.84083
695 3 35.2 16 3.2 -11.1209
696 1 36.8 17.6 4.8 -11.6268
697 2 38.4 16 3.2 -9.63014
698 1 40 17.6 4.8 -11.6471
699 2 41.6 16 3.2 -9.69085
700 1 43.2 17.6 4.8 -11.6719
701 2 44.8 16 3.2 -9.65956
702 1 46.4 17.6 4.8 -11.6573
703 3 48 16 3.2 -11.0829
704 1 49.6 17.6 4.8 -11.7532
705 3 0 19.2 3.2 -11.1654
706 1 1.6 20.8 4.8 -11.8124
707 2 3.2 19.2 3.2 -9.66159
708 1 4.8 20.8 4.8 -11.6584
709 1 6.4 19.2 3.2 -11.6011
710 2 8 20.8 4.8 -9.70148
711 1 9.6 19.2 3.2 -11.5915
712 2 11.2 20.8 4.8 -9.6328
713 1 12.8 19.2 3.2 -11.6967
714 2 14.4 20.8 4.8 -9.79031
715 1 16 19.2 3.2 -11.7134
716 1 17.6 20.8 4.8 -11.6519
717 2 19.2 19.2 3.2 -9.76037
718 1 20.8 20.8 4.8 -11.6681
719 2 22.4 19.2 3.2 -9.81395
720 2 24 20.8 4.8 -9.81287
721 2 25.6 19.2 3.2 -9.82893
722 2 27.2 20.8 4.8 -9.7297
723 2 28.8 19.2 3.2 -9.77353
724 2 30.4 20.8 4.8 -9.75911
725 2 32 19.2 3.2 -9.82977
726 3 33.6 20.8 4.8 -11.3833
727 2 35.2 19.2 3.2 -9.78912
728 2 36.8 20.8 4.8 -9.78295
729 1 38.4 19.2 3.2 -11.5987
730 2 40 20.8 4.8 -9.75598
731 2 41.6 19.2 3.2 -9.76381
732 1 43.2 20.8 4.8 -11.6313
733 2 44.8 19.2 3.2 -9.65969
734 1 46.4 20.8 4.8 -11.6275
735 3 48 19.2 3.2 -11.0826
736 1 49.6 20.8 4.8 -11.7511
737 3 0 22.4 3.2 -11.2045
738 1 1.6 24 4.8 -11.8124
739 3 3.2 22.4 3.2 -11.1657
740 1 4.8 24 4.8 -11.7852
741 2 6.4 22.4 3.2 -9.70143
742 2 8 24 4.8 -9.72741
743 1 9.6 22.4 3.2 -11.5609
744 1 11.2 24 4.8 -11.6187
745 2 12.8 22.4 3.2 -9.72839
746 1 14.4 24 4.8 -11.7285
747 2 16 22.4 3.2 -9.73156
748 1 17.6 24 4.8 -11.6927
749 2 19.2 22.4 3.2 -9.69094
750 1 20.8 24 4.8 -11.6313
751 2 22.4 22.4 3.2 -9.76431
752 2 24 24 4.8 -9.76037
753 1 25.6 22.4 3.2 -11.6741
754 2 27.2 24 4.8 -9.66009
755 1 28.8 22.4 3.2 -11.694
756 3 30.4 24 4.8 -10.9955
757 1 32 22.4 3.2 -11.7648
758 2 33.6 24 4.8 -9.77985
759 2 35.2 22.4 3.2 -9.82141
760 1 36.8 24 4.8 -11.7027
761 1 38.4 22.4 3.2 -11.5978
762 2 40 24 4.8 -9.71133
763 2 41.6 22.4 3.2 -9.77178
764 1 43.2 24 4.8 -11.6702
765 2 44.8 22.4 3.2 -9.65648
766 1 46.4 24 4.8 -11.6329
767 2 48 22.4 3.2 -9.6459
768 1 49.6 24 4.8 -11.7183
769 3 0 25.6 3.2 -11.1241
771 3 3.2 25.6 3.2 -11.2051
773 3 6.4 25.6 3.2 -11.1588
775 2 9.6 25.6 3.2 -9.66641
777 3 12.8 25.6 3.2 -11.0406
779 3 16 25.6 3.2 -11.084
781 2 19.2 25.6 3.2 -9.58296
783 2 22.4 25.6 3.2 -9.75201
785 2 25.6 25.6 3.2 -9.68978
787 1 28.8 25.6 3.2 -11.7043
789 1 32 25.6 3.2 -11.6166
791 2 35.2 25.6 3.2 -9.70065
793 2 38.4 25.6 3.2 -9.63211
795 2 41.6 25.6 3.2 -9.72934
797 2 44.8 25.6 3.2 -9.69906
799 2 48 25.6 3.2 -9.65944
770 1 1.6 27.2 4.8 -11.7831
801 2 0 28.8 3.2 -9.6459
772 1 4.8 27.2 4.8 -11.7522
803 3 3.2 28.8 3.2 -11.1248
774 1 8 27.2 4.8 -11.6993
805 2 6.4 28.8 3.2 -9.74969
776 1 11.2 27.2 4.8 -11.6
807 2 9.6 28.8 3.2 -9.59303
778 1 14.4 27.2 4.8 -11.6893
809 2 12.8 28.8 3.2 -9.58296
780 1 17.6 27.2 4.8 -11.6578
811 2 16 28.8 3.2 -9.61785
782 1 20.8 27.2 4.8 -11.6313
813 2 19.2 28.8 3.2 -9.54847
784 2 24 27.2 4.8 -9.81421
815 2 22.4 28.8 3.2 -9.75538
817 1 25.6 28.8 3.2 -11.7376
786 2 27.2 27.2 4.8 -9.69907
819 2 28.8 28.8 3.2 -9.7518
788 2 30.4 27.2 4.8 -9.73027
821 2 32 28.8 3.2 -9.77912
790 1 33.6 27.2 4.8 -11.6365
823 3 35.2 28.8 3.2 -11.0854
792 1 36.8 27.2 4.8 -11.7505
825 2 38.4 28.8 3.2 -9.69133
794 1 40 27.2 4.8 -11.6931
827 2 41.6 28.8 3.2 -9.62584
796 1 43.2 27.2 4.8 -11.5927
829 2 44.8 28.8 3.2 -9.75113
798 1 46.4 27.2 4.8 -11.6996
831 2 48 28.8 3.2 -9.78043
800 1 49.6 27.2 4.8 -11.7201
802 1 1.6 30.4 4.8 -11.7511
833 2 0 32 3.2 -9.61504
804 1 4.8 30.4 4.8 -11.7878
835 3 3.2 32 3.2 -11.2054
806 2 8 30.4 4.8 -9.71107
837 3 6.4 32 3.2 -11.2662
808 1 11.2 30.4 4.8 -11.5869
839 2 9.6 32 3.2 -9.72945
810 1 14.4 30.4 4.8 -11.627
841 2 12.8 32 3.2 -9.66022
812 1 17.6 30.4 4.8 -11.627
843 3 16 32 3.2 -10.995
814 1 20.8 30.4 4.8 -11.6686
845 2 19.2 32 3.2 -9.58355
816 2 24 30.4 4.8 -9.75519
847 2 22.4 32 3.2 -9.69483
849 1 25.6 32 3.2 -11.7004
818 2 27.2 30.4 4.8 -9.68876
851 1 28.8 32 3.2 -11.7344
820 2 30.4 30.4 4.8 -9.75725
853 2 32 32 3.2 -9.76027
822 1 33.6 30.4 4.8 -11.6752
855 2 35.2 32 3.2 -9.65985
824 1 36.8 30.4 4.8 -11.7198
857 2 38.4 32 3.2 -9.80144
826 1 40 30.4 4.8 -11.7314
859 2 41.6 32 3.2 -9.77407
828 1 43.2 30.4 4.8 -11.6318
861 2 44.8 32 3.2 -9.76377
830 2 46.4 30.4 4.8 -9.75211
863 2 48 32 3.2 -9.75106
832 1 49.6 30.4 4.8 -11.6931
834 1 1.6 33.6 4.8 -11.7201
865 3 0 35.2 3.2 -11.1586
836 1 4.8 33.6 4.8 -11.7826
867 3 3.2 35.2 3.2 -11.2051
838 2 8 33.6 4.8 -9.8415
869 3 6.4 35.2 3.2 -11.2666
840 2 11.2 33.6 4.8 -9.75565
871 2 9.6 35.2 3.2 -9.78367
842 1 14.4 33.6 4.8 -11.6656
873 2 12.8 35.2 3.2 -9.69055
844 1 17.6 33.6 4.8 -11.6459
875 2 16 35.2 3.2 -9.75275
846 1 20.8 33.6 4.8 -11.5467
877 2 19.2 35.2 3.2 -9.65669
848 2 24 33.6 4.8 -9.69903
879 1 22.4 35.2 3.2 -11.638
881 1 25.6 35.2 3.2 -11.7508
850 3 27.2 33.6 4.8 -11.0826
883 1 28.8 35.2 3.2 -11.7829
852 2 30.4 33.6 4.8 -9.75289
885 2 32 35.2 3.2 -9.80279
854 2 33.6 33.6 4.8 -9.63277
887 2 35.2 35.2 3.2 -9.70779
856 1 36.8 33.6 4.8 -11.7015
889 2 38.4 35.2 3.2 -9.77935
858 2 40 33.6 4.8 -9.7946
891 1 41.6 35.2 3.2 -11.5982
860 1 43.2 33.6 4.8 -11.6107
893 2 44.8 35.2 3.2 -9.62644
862 1 46.4 33.6 4.8 -11.6697
895 2 48 35.2 3.2 -9.76498
864 1 49.6 33.6 4.8 -11.6616
866 1 1.6 36.8 4.8 -11.7899
897 3 0 38.4 3.2 -11.1975
868 1 4.8 36.8 4.8 -11.7629
899 3 3.2 38.4 3.2 -11.1252
870 2 8 36.8 4.8 -9.85473
901 2 6.4 38.4 3.2 -9.75672
872 2 11.2 36.8 4.8 -9.81274
903 2 9.6 38.4 3.2 -9.81273
874 1 14.4 36.8 4.8 -11.7065
905 2 12.8 38.4 3.2 -9.81402
876 2 17.6 36.8 4.8 -9.73593
907 2 16 38.4 3.2 -9.7694
878 3 20.8 36.8 4.8 -11.0826
909 1 19.2 38.4 3.2 -11.6642
880 3 24 36.8 4.8 -11.1663
911 1 22.4 38.4 3.2 -11.7808
913 1 25.6 38.4 3.2 -11.7811
882 3 27.2 36.8 4.8 -11.2054
915 1 28.8 38.4 3.2 -11.8048
884 3 30.4 36.8 4.8 -11.1906
917 2 32 38.4 3.2 -9.81918
886 1 33.6 36.8 4.8 -11.6011
919 2 35.2 38.4 3.2 -9.64183
888 1 36.8 36.8 4.8 -11.6097
921 1 38.4 38.4 3.2 -11.6589
890 2 40 36.8 4.8 -9.70372
923 1 41.6 38.4 3.2 -11.5743
892 1 43.2 36.8 4.8 -11.5343
925 2 44.8 38.4 3.2 -9.66499
894 1 46.4 36.8 4.8 -11.6616
927 3 48 38.4 3.2 -11.1167
896 2 49.6 36.8 4.8 -9.72435
898 1 1.6 40 4.8 -11.6967
929 2 0 41.6 3.2 -9.69145
900 1 4.8 40 4.8 -11.576
931 2 3.2 41.6 3.2 -9.70052
902 2 8 40 4.8 -9.69476
933 1 6.4 41.6 3.2 -11.5832
904 2 11.2 40 4.8 -9.81416
935 1 9.6 41.6 3.2 -11.6651
906 2 14.4 40 4.8 -9.75461
937 1 12.8 41.6 3.2 -11.734
908 1 17.6 40 4.8 -11.5941
939 1 16 41.6 3.2 -11.6742
910 3 20.8 40 4.8 -11.0814
941 1 19.2 41.6 3.2 -11.6643
912 3 24 40 4.8 -11.1249
943 1 22.4 41.6 3.2 -11.7238
945 1 25.6 41.6 3.2 -11.6907
914 2 27.2 40 4.8 -9.72093
947 1 28.8 41.6 3.2 -11.7612
916 3 30.4 40 4.8 -11.2313
949 1 32 41.6 3.2 -11.7263
918 2 33.6 40 4.8 -9.6765
951 1 35.2 41.6 3.2 -11.6709
920 1 36.8 40 4.8 -11.6314
953 2 38.4 41.6 3.2 -9.65242
922 2 40 40 4.8 -9.7018
955 1 41.6 41.6 3.2 -11.5334
924 2 43.2 40 4.8 -9.70046
957 2 44.8 41.6 3.2 -9.63235
926 1 46.4 40 4.8 -11.6656
959 2 48 41.6 3.2 -9.69091
928 1 49.6 40 4.8 -11.729
930 1 1.6 43.2 4.8 -11.7065
961 2 0 44.8 3.2 -9.79596
932 2 4.8 43.2 4.8 -9.6952
963 2 3.2 44.8 3.2 -9.81275
934 2 8 43.2 4.8 -9.62641
965 1 6.4 44.8 3.2 -11.7029
936 2 11.2 43.2 4.8 -9.72375
967 1 9.6 44.8 3.2 -11.6889
938 2 14.4 43.2 4.8 -9.78568
969 1 12.8 44.8 3.2 -11.7594
940 2 17.6 43.2 4.8 -9.67204
971 1 16 44.8 3.2 -11.759
942 2 20.8 43.2 4.8 -9.70534
973 1 19.2 44.8 3.2 -11.6881
944 2 24 43.2 4.8 -9.72407
975 1 22.4 44.8 3.2 -11.6661
977 1 25.6 44.8 3.2 -11.735
946 2 27.2 43.2 4.8 -9.78506
979 2 28.8 44.8 3.2 -9.77475
948 2 30.4 43.2 4.8 -9.79027
981 2 32 44.8 3.2 -9.72829
950 2 33.6 43.2 4.8 -9.76109
983 2 35.2 44.8 3.2 -9.7314
952 2 36.8 43.2 4.8 -9.74324
985 2 38.4 44.8 3.2 -9.65998
954 1 40 43.2 4.8 -11.6632
987 2 41.6 44.8 3.2 -9.514
956 1 43.2 43.2 4.8 -11.6284
989 2 44.8 44.8 3.2 -9.5832
958 1 46.4 43.2 4.8 -11.6986
991 3 48 44.8 3.2 -11.0762
960 2 49.6 43.2 4.8 -9.75187
962 2 1.6 46.4 4.8 -9.81228
993 2 0 48 3.2 -9.75535
964 2 4.8 46.4 4.8 -9.81388
995 1 3.2 48 3.2 -11.7029
966 2 8 46.4 4.8 -9.7236
997 1 6.4 48 3.2 -11.7009
968 2 11.2 46.4 4.8 -9.65957
999 1 9.6 48 3.2 -11.6573
970 2 14.4 46.4 4.8 -9.78387
1001 1 12.8 48 3.2 -11.6569
972 2 17.6 46.4 4.8 -9.7318
1003 1 16 48 3.2 -11.6966
974 2 20.8 46.4 4.8 -9.70105
1005 1 19.2 48 3.2 -11.7039
976 2 24 46.4 4.8 -9.76037
1007 1 22.4 48 3.2 -11.6097
1009 2 25.6 48 3.2 -9.75541
978 2 27.2 46.4 4.8 -9.82011
1011 2 28.8 48 3.2 -9.76713
980 1 30.4 46.4 4.8 -11.7627
1013 3 32 48 3.2 -11.2016
982 1 33.6 46.4 4.8 -11.759
1015 3 35.2 48 3.2 -11.1254
984 1 36.8 46.4 4.8 -11.7594
1017 3 38.4 48 3.2 -11.1663
986 1 40 46.4 4.8 -11.6911
1019 2 41.6 48 3.2 -9.61504
988 1 43.2 46.4 4.8 -11.627
1021 2 44.8 48 3.2 -9.62613
990 1 46.4 46.4 4.8 -11.6644
1023 2 48 48 3.2 -9.73202
992 1 49.6 46.4 4.8 -11.7852
994 2 1.6 49.6 4.8 -9.72094
996 2 4.8 49.6 4.8 -9.72358
998 2 8 49.6 4.8 -9.69038
1000 2 11.2 49.6 4.8 -9.65676
1002 2 14.4 49.6 4.8 -9.70034
1004 2 17.6 49.6 4.8 -9.76027
1006 2 20.8 49.6 4.8 -9.75464
1008 1 24 49.6 4.8 -11.6558
1010 1 27.2 49.6 4.8 -11.6884
1012 1 30.4 49.6 4.8 -11.714
1014 1 33.6 49.6 4.8 -11.8122
1016 1 36.8 49.6 4.8 -11.7844
1018 1 40 49.6 4.8 -11.7532
1020 1 43.2 49.6 4.8 -11.6569
1022 1 46.4 49.6 4.8 -11.6284
1024 2 49.6 49.6 4.8 -9.69336
1025 1 0 0 6.4 -11.6937
1026 2 1.6 1.6 8 -9.66633
1027 1 3.2 0 6.4 -11.6656
1028 2 4.8 1.6 8 -9.70054
1029 2 6.4 0 6.4 -9.74366
1030 1 8 1.6 8 -11.6288
1031 1 9.6 0 6.4 -11.7125
1032 2 11.2 1.6 8 -9.73317
1033 2 12.8 0 6.4 -9.7199
1034 1 14.4 1.6 8 -11.648
1035 2 16 0 6.4 -9.66721
1036 1 17.6 1.6 8 -11.6822
1037 2 19.2 0 6.4 -9.78415
1038 1 20.8 1.6 8 -11.7299
1039 2 22.4 0 6.4 -9.73264
1040 1 24 1.6 8 -11.7298
1041 3 25.6 0 6.4 -11.2203
1042 2 27.2 1.6 8 -9.80695
1043 2 28.8 0 6.4 -9.71807
1044 1 30.4 1.6 8 -11.6651
1045 3 32 0 6.4 -11.1249
1046 1 33.6 1.6 8 -11.743
1047 3 35.2 0 6.4 -11.1989
1048 2 36.8 1.6 8 -9.75957
1049 2 38.4 0 6.4 -9.77621
1050 1 40 1.6 8 -11.6476
1051 3 41.6 0 6.4 -11.04
1052 1 43.2 1.6 8 -11.6752
1053 2 44.8 0 6.4 -9.7319
1054 2 46.4 1.6 8 -9.81272
1055 1 48 0 6.4 -11.6422
1056 2 49.6 1.6 8 -9.69384
1057 1 0 3.2 6.4 -11.6097
1058 2 1.6 4.8 8 -9.7608
1059 1 3.2 3.2 6.4 -11.6302
1060 2 4.8 4.8 8 -9.77895
1061 1 6.4 3.2 6.4 -11.6287
1062 1 8 4.8 8 -11.6362
1063 2 9.6 3.2 6.4 -9.66045
1064 1 11.2 4.8 8 -11.6538
1065 1 12.8 3.2 6.4 -11.652
1066 2 14.4 4.8 8 -9.6659
1067 1 16 3.2 6.4 -11.542
1068 2 17.6 4.8 8 -9.79872
1069 2 19.2 3.2 6.4 -9.78555
1070 2 20.8 4.8 8 -9.82892
1071 2 22.4 3.2 6.4 -9.81267
1072 2 24 4.8 8 -9.81282
1073 2 25.6 3.2 6.4 -9.84008
1074 2 27.2 4.8 8 -9.80936
1075 2 28.8 3.2 6.4 -9.75155
1076 1 30.4 4.8 8 -11.6277
1077 2 32 3.2 6.4 -9.69197
1078 2 33.6 4.8 8 -9.70158
1079 2 35.2 3.2 6.4 -9.76175
1080 2 36.8 4.8 8 -9.77814
1081 2 38.4 3.2 6.4 -9.75911
1082 2 40 4.8 8 -9.71715
1083 2 41.6 3.2 6.4 -9.69901
1084 2 43.2 4.8 8 -9.76033
1085 2 44.8 3.2 6.4 -9.81374
1086 2 46.4 4.8 8 -9.8673
1087 1 48 3.2 6.4 -11.6412
1088 1 49.6 4.8 8 -11.6269
1089 2 0 6.4 6.4 -9.7317
1090 1 1.6 8 8 -11.6966
1091 2 3.2 6.4 6.4 -9.81406
1092 1 4.8 8 8 -11.7303
1093 2 6.4 6.4 6.4 -9.78995
1094 1 8 8 8 -11.728
1095 2 9.6 6.4 6.4 -9.7561
1096 1 11.2 8 8 -11.6362
1097 2 12.8 6.4 6.4 -9.6383
1098 1 14.4 8 8 -11.5618
1099 1 16 6.4 6.4 -11.6094
1100 2 17.6 8 8 -9.75494
1101 1 19.2 6.4 6.4 -11.6353
1102 2 20.8 8 8 -9.7806
1103 1 22.4 6.4 6.4 -11.6556