ITEM: TIMESTEP
0
ITEM: NUMBER OF ATOMS
8192
ITEM: BOX BOUNDS pp pp pp
0.0000000000000000e+00 5.1200000000000003e+01
0.0000000000000000e+00 5.1200000000000003e+01
0.0000000000000000e+00 5.1200000000000003e+01
ITEM: ATOMS id type x y z c_eng
1 1 0 0 0 -11.521
2 2 1.6 1.6 1.6 -9.6644
3 1 3.2 0 0 -11.6012
4 2 4.8 1.6 1.6 -9.69129
5 1 6.4 0 0 -11.6968
6 2 8 1.6 1.6 -9.65578
7 2 9.6 0 0 -9.74702
8 3 11.2 1.6 1.6 -11.2753
9 1 12.8 0 0 -11.8379
10 3 14.4 1.6 1.6 -11.1651
11 1 16 0 0 -11.7844
12 3 17.6 1.6 1.6 -11.1994
13 1 19.2 0 0 -11.7856
14 2 20.8 1.6 1.6 -9.79364
15 1 22.4 0 0 -11.7222
16 3 24 1.6 1.6 -11.1534
17 1 25.6 0 0 -11.6936
18 2 27.2 1.6 1.6 -9.73974
19 1 28.8 0 0 -11.6739
20 1 30.4 1.6 1.6 -11.6479
21 1 32 0 0 -11.6148
22 1 33.6 1.6 1.6 -11.6654
23 2 35.2 0 0 -9.7209
24 1 36.8 1.6 1.6 -11.7564
25 3 38.4 0 0 -11.2276
26 1 40 1.6 1.6 -11.7528
27 2 41.6 0 0 -9.61516
28 1 43.2 1.6 1.6 -11.6969
29 2 44.8 0 0 -9.78055
30 2 46.4 1.6 1.6 -9.83731
31 2 48 0 0 -9.78416
32 2 49.6 1.6 1.6 -9.70069
33 2 0 3.2 0 -9.80165
34 2 1.6 4.8 1.6 -9.79052
35 2 3.2 3.2 0 -9.70836
36 3 4.8 4.8 1.6 -11.0767
37 1 6.4 3.2 0 -11.6621
38 2 8 4.8 1.6 -9.61785
39 1 9.6 3.2 0 -11.7209
40 3 11.2 4.8 1.6 -11.1262
41 1 12.8 3.2 0 -11.7806
42 3 14.4 4.8 1.6 -11.0824
43 1 16 3.2 0 -11.7844
44 2 17.6 4.8 1.6 -9.6778
45 1 19.2 3.2 0 -11.7579
46 2 20.8 4.8 1.6 -9.6898
47 2 22.4 3.2 0 -9.76876
48 2 24 4.8 1.6 -9.72125
49 1 25.6 3.2 0 -11.7371
50 2 27.2 4.8 1.6 -9.69468
51 2 28.8 3.2 0 -9.75528
52 1 30.4 4.8 1.6 -11.7019
53 2 32 3.2 0 -9.72817
54 1 33.6 4.8 1.6 -11.7564
55 2 35.2 3.2 0 -9.81287
56 1 36.8 4.8 1.6 -11.7568
57 2 38.4 3.2 0 -9.72857
58 1 40 4.8 1.6 -11.722
59 3 41.6 3.2 0 -11.0403
60 1 43.2 4.8 1.6 -11.7201
61 2 44.8 3.2 0 -9.72349
62 1 46.4 4.8 1.6 -11.7101
63 2 48 3.2 0 -9.84952
64 2 49.6 4.8 1.6 -9.76025
65 2 0 6.4 0 -9.8618
66 1 1.6 8 1.6 -11.6435
67 1 3.2 6.4 0 -11.6737
68 2 4.8 8 1.6 -9.75575
69 1 6.4 6.4 0 -11.6262
70 2 8 8 1.6 -9.69452
71 1 9.6 6.4 0 -11.6578
72 3 11.2 8 1.6 -11.0403
73 1 12.8 6.4 0 -11.7297
74 2 14.4 8 1.6 -9.64864
75 1 16 6.4 0 -11.7318
76 3 17.6 8 1.6 -10.9947
77 1 19.2 6.4 0 -11.7336
78 2 20.8 8 1.6 -9.72445
79 2 22.4 6.4 0 -9.80474
80 2 24 8 1.6 -9.64217
81 1 25.6 6.4 0 -11.5605
82 1 27.2 8 1.6 -11.5771
83 2 28.8 6.4 0 -9.7589
84 1 30.4 8 1.6 -11.7075
85 2 32 6.4 0 -9.73237
86 1 33.6 8 1.6 -11.6881
87 3 35.2 6.4 0 -11.1892
88 1 36.8 8 1.6 -11.7242
89 2 38.4 6.4 0 -9.68854
90 1 40 8 1.6 -11.6919
91 2 41.6 6.4 0 -9.64841
92 1 43.2 8 1.6 -11.7226
93 2 44.8 6.4 0 -9.64613
94 1 46.4 8 1.6 -11.6964
95 3 48 6.4 0 -11.1455
96 1 49.6 8 1.6 -11.7266
97 3 0 9.6 0 -11.2008
98 1 1.6 11.2 1.6 -11.7565
99 2 3.2 9.6 0 -9.81534
100 2 4.8 11.2 1.6 -9.83804
101 1 6.4 9.6 0 -11.7193
102 2 8 11.2 1.6 -9.72333
103 1 9.6 9.6 0 -11.6262
104 2 11.2 11.2 1.6 -9.58296
105 1 12.8 9.6 0 -11.6661
106 2 14.4 11.2 1.6 -9.61528
107 1 16 9.6 0 -11.6656
108 2 17.6 11.2 1.6 -9.58308
109 1 19.2 9.6 0 -11.7029
110 2 20.8 11.2 1.6 -9.48285
111 2 22.4 9.6 0 -9.75728
112 1 24 11.2 1.6 -11.525
113 2 25.6 9.6 0 -9.71429
114 2 27.2 11.2 1.6 -9.75561
115 2 28.8 9.6 0 -9.83852
116 2 30.4 11.2 1.6 -9.74925
117 2 32 9.6 0 -9.75118
118 1 33.6 11.2 1.6 -11.6671
119 2 35.2 9.6 0 -9.64636
120 1 36.8 11.2 1.6 -11.662
121 3 38.4 9.6 0 -11.0397
122 1 40 11.2 1.6 -11.6893
123 3 41.6 9.6 0 -11.1265
124 1 43.2 11.2 1.6 -11.7884
125 3 44.8 9.6 0 -11.0824
126 1 46.4 11.2 1.6 -11.722
127 2 48 9.6 0 -9.70739
128 1 49.6 11.2 1.6 -11.7208
129 3 0 12.8 0 -11.1657
130 1 1.6 14.4 1.6 -11.6578
131 3 3.2 12.8 0 -11.1894
132 1 4.8 14.4 1.6 -11.7272
133 2 6.4 12.8 0 -9.80774
134 2 8 14.4 1.6 -9.80615
135 1 9.6 12.8 0 -11.6606
136 2 11.2 14.4 1.6 -9.61528
137 1 12.8 12.8 0 -11.6661
138 3 14.4 14.4 1.6 -11.0832
139 1 16 12.8 0 -11.6654
140 2 17.6 14.4 1.6 -9.65997
141 1 19.2 12.8 0 -11.6307
142 2 20.8 14.4 1.6 -9.63351
143 1 22.4 12.8 0 -11.5994
144 2 24 14.4 1.6 -9.63223
145 1 25.6 12.8 0 -11.6445
146 2 27.2 14.4 1.6 -9.69457
147 1 28.8 12.8 0 -11.6753
148 1 30.4 14.4 1.6 -11.6291
149 2 32 12.8 0 -9.69998
150 1 33.6 14.4 1.6 -11.6569
151 2 35.2 12.8 0 -9.58247
152 1 36.8 14.4 1.6 -11.7187
153 2 38.4 12.8 0 -9.64852
154 1 40 14.4 1.6 -11.6915
155 3 41.6 12.8 0 -11.0829
156 1 43.2 14.4 1.6 -11.7301
157 3 44.8 12.8 0 -11.1663
158 1 46.4 14.4 1.6 -11.7528
159 3 48 12.8 0 -11.1651
160 1 49.6 14.4 1.6 -11.7208
161 2 0 16 0 -9.67712
162 1 1.6 17.6 1.6 -11.6897
163 2 3.2 16 0 -9.61749
164 1 4.8 17.6 1.6 -11.694
165 2 6.4 16 0 -9.80608
166 2 8 17.6 1.6 -9.77766
167 1 9.6 16 0 -11.6925
168 2 11.2 17.6 1.6 -9.58272
169 1 12.8 16 0 -11.6964
170 3 14.4 17.6 1.6 -11.0838
171 1 16 16 0 -11.7134
172 2 17.6 17.6 1.6 -9.72427
173 1 19.2 16 0 -11.6705
174 2 20.8 17.6 1.6 -9.69398
175 1 22.4 16 0 -11.6699
176 2 24 17.6 1.6 -9.75549
177 1 25.6 16 0 -11.6697
178 2 27.2 17.6 1.6 -9.73325
179 1 28.8 16 0 -11.6451
180 2 30.4 17.6 1.6 -9.64163
181 2 32 16 0 -9.672
182 1 33.6 17.6 1.6 -11.675
183 3 35.2 16 0 -11.1271
184 1 36.8 17.6 1.6 -11.6445
185 3 38.4 16 0 -11.0837
186 1 40 17.6 1.6 -11.671
187 2 41.6 16 0 -9.69168
188 2 43.2 17.6 1.6 -9.67738
189 2 44.8 16 0 -9.69133
190 1 46.4 17.6 1.6 -11.7305
191 3 48 16 0 -11.1254
192 1 49.6 17.6 1.6 -11.7532
193 3 0 19.2 0 -11.1651
194 1 1.6 20.8 1.6 -11.8124
195 3 3.2 19.2 0 -11.1243
196 1 4.8 20.8 1.6 -11.7289
197 2 6.4 19.2 0 -9.78545
198 2 8 20.8 1.6 -9.7608
199 1 9.6 19.2 0 -11.7027
200 2 11.2 20.8 1.6 -9.70087
201 1 12.8 19.2 0 -11.7019
202 2 14.4 20.8 1.6 -9.7863
203 1 16 19.2 0 -11.7011
204 2 17.6 20.8 1.6 -9.72342
205 1 19.2 19.2 0 -11.6435
206 1 20.8 20.8 1.6 -11.6565
207 1 22.4 19.2 0 -11.6598
208 2 24 20.8 1.6 -9.79186
209 1 25.6 19.2 0 -11.7
210 3 27.2 20.8 1.6 -11.1169
211 1 28.8 19.2 0 -11.6641
212 2 30.4 20.8 1.6 -9.68914
213 1 32 19.2 0 -11.6262
214 2 33.6 20.8 1.6 -9.78853
215 2 35.2 19.2 0 -9.70048
216 1 36.8 20.8 1.6 -11.6041
217 2 38.4 19.2 0 -9.59775
218 2 40 20.8 1.6 -9.69079
219 2 41.6 19.2 0 -9.69936
220 1 43.2 20.8 1.6 -11.7048
221 2 44.8 19.2 0 -9.65957
222 1 46.4 20.8 1.6 -11.6601
223 2 48 19.2 0 -9.64578
224 1 49.6 20.8 1.6 -11.7511
225 3 0 22.4 0 -11.1645
226 1 1.6 24 1.6 -11.8122
227 3 3.2 22.4 0 -11.2051
228 1 4.8 24 1.6 -11.7786
229 2 6.4 22.4 0 -9.72356
230 1 8 24 1.6 -11.6709
231 2 9.6 22.4 0 -9.72768
232 1 11.2 24 1.6 -11.6291
233 2 12.8 22.4 0 -9.75541
234 1 14.4 24 1.6 -11.6966
235 2 16 22.4 0 -9.75495
236 1 17.6 24 1.6 -11.6964
237 2 19.2 22.4 0 -9.76278
238 1 20.8 24 1.6 -11.5994
239 2 22.4 22.4 0 -9.70264
240 2 24 24 1.6 -9.76433
241 1 25.6 22.4 0 -11.6651
242 2 27.2 24 1.6 -9.68875
243 1 28.8 22.4 0 -11.6259
244 2 30.4 24 1.6 -9.69071
245 1 32 22.4 0 -11.6513
246 2 33.6 24 1.6 -9.75534
247 2 35.2 22.4 0 -9.70018
248 1 36.8 24 1.6 -11.6661
249 2 38.4 22.4 0 -9.65998
250 1 40 24 1.6 -11.7301
251 2 41.6 22.4 0 -9.69145
252 1 43.2 24 1.6 -11.6915
253 3 44.8 22.4 0 -11.04
254 1 46.4 24 1.6 -11.662
255 2 48 22.4 0 -9.64829
256 1 49.6 24 1.6 -11.7245
257 2 0 25.6 0 -9.70728
259 3 3.2 25.6 0 -11.1248
261 2 6.4 25.6 0 -9.67735
263 3 9.6 25.6 0 -11.04
265 2 12.8 25.6 0 -9.61516
267 2 16 25.6 0 -9.61773
269 2 19.2 25.6 0 -9.5136
271 1 22.4 25.6 0 -11.5353
273 1 25.6 25.6 0 -11.6313
275 1 28.8 25.6 0 -11.6689
277 2 32 25.6 0 -9.79094
279 2 35.2 25.6 0 -9.69172
281 3 38.4 25.6 0 -11.0829
283 3 41.6 25.6 0 -11.1265
285 2 44.8 25.6 0 -9.64875
287 3 48 25.6 0 -10.9942
258 1 1.6 27.2 1.6 -11.7511
289 2 0 28.8 0 -9.58234
260 1 4.8 27.2 1.6 -11.7844
291 2 3.2 28.8 0 -9.67724
262 1 8 27.2 1.6 -11.7528
293 3 6.4 28.8 0 -11.1251
264 1 11.2 27.2 1.6 -11.6919
295 3 9.6 28.8 0 -11.1249
266 1 14.4 27.2 1.6 -11.6582
297 2 12.8 28.8 0 -9.61516
268 1 17.6 27.2 1.6 -11.6275
299 2 16 28.8 0 -9.65622
270 1 20.8 27.2 1.6 -11.565
301 2 19.2 28.8 0 -9.69103
272 2 24 27.2 1.6 -9.76444
303 2 22.4 28.8 0 -9.72182
305 1 25.6 28.8 0 -11.6611
274 2 27.2 27.2 1.6 -9.62597
307 1 28.8 28.8 0 -11.6305
276 2 30.4 27.2 1.6 -9.75538
309 2 32 28.8 0 -9.81297
278 1 33.6 27.2 1.6 -11.7345
311 3 35.2 28.8 0 -11.0843
280 1 36.8 27.2 1.6 -11.7238
313 2 38.4 28.8 0 -9.78142
282 1 40 27.2 1.6 -11.7607
315 2 41.6 28.8 0 -9.78325
284 1 43.2 27.2 1.6 -11.6569
317 2 44.8 28.8 0 -9.69378
286 1 46.4 27.2 1.6 -11.6671
319 2 48 28.8 0 -9.72386
288 1 49.6 27.2 1.6 -11.6915
290 1 1.6 30.4 1.6 -11.7208
321 2 0 32 0 -9.58259
292 1 4.8 30.4 1.6 -11.7532
323 3 3.2 32 0 -11.1254
294 1 8 30.4 1.6 -11.6893
325 2 6.4 32 0 -9.67724
296 1 11.2 30.4 1.6 -11.627
327 2 9.6 32 0 -9.65943
298 1 14.4 30.4 1.6 -11.6275
329 2 12.8 32 0 -9.62601
300 1 17.6 30.4 1.6 -11.6661
331 2 16 32 0 -9.72411
302 1 20.8 30.4 1.6 -11.609
333 2 19.2 32 0 -9.62596
304 2 24 30.4 1.6 -9.76358
335 1 22.4 32 0 -11.6758
337 1 25.6 32 0 -11.6885
306 2 27.2 30.4 1.6 -9.54835
339 1 28.8 32 0 -11.6691
308 2 30.4 30.4 1.6 -9.75563
341 2 32 32 0 -9.75507
310 1 33.6 30.4 1.6 -11.6962
343 2 35.2 32 0 -9.61516
312 1 36.8 30.4 1.6 -11.7249
345 2 38.4 32 0 -9.7802
314 2 40 30.4 1.6 -9.80372
347 2 41.6 32 0 -9.81386
316 1 43.2 30.4 1.6 -11.7075
349 2 44.8 32 0 -9.80805
318 2 46.4 30.4 1.6 -9.78611
351 2 48 32 0 -9.79971
320 1 49.6 30.4 1.6 -11.6666
322 1 1.6 33.6 1.6 -11.7187
353 2 0 35.2 0 -9.65959
324 1 4.8 33.6 1.6 -11.7508
355 3 3.2 35.2 0 -11.166
326 1 8 33.6 1.6 -11.6651
357 3 6.4 35.2 0 -11.1591
328 1 11.2 33.6 1.6 -11.708
359 2 9.6 35.2 0 -9.78901
330 1 14.4 33.6 1.6 -11.6249
361 2 12.8 35.2 0 -9.69433
332 1 17.6 33.6 1.6 -11.6779
363 2 16 35.2 0 -9.70084
334 1 20.8 33.6 1.6 -11.5394
365 1 19.2 35.2 0 -11.6187
336 3 24 33.6 1.6 -11.154
367 1 22.4 35.2 0 -11.6908
369 1 25.6 35.2 0 -11.7528
338 2 27.2 33.6 1.6 -9.64602
371 1 28.8 35.2 0 -11.6962
340 2 30.4 33.6 1.6 -9.75507
373 2 32 35.2 0 -9.75554
342 1 33.6 33.6 1.6 -11.6686
375 2 35.2 35.2 0 -9.65957
344 1 36.8 33.6 1.6 -11.6686
377 2 38.4 35.2 0 -9.78375
346 2 40 33.6 1.6 -9.80476
379 2 41.6 35.2 0 -9.71034
348 1 43.2 33.6 1.6 -11.6024
381 2 44.8 35.2 0 -9.76427
350 2 46.4 33.6 1.6 -9.78611
383 2 48 35.2 0 -9.76397
352 1 49.6 33.6 1.6 -11.6318
354 1 1.6 36.8 1.6 -11.6911
385 2 0 38.4 0 -9.77825
356 1 4.8 36.8 1.6 -11.6885
387 2 3.2 38.4 0 -9.61504
358 1 8 36.8 1.6 -11.6572
389 2 6.4 38.4 0 -9.66926
360 2 11.2 36.8 1.6 -9.75662
391 1 9.6 38.4 0 -11.6454
362 1 14.4 36.8 1.6 -11.7059
393 2 12.8 38.4 0 -9.75581
364 2 17.6 36.8 1.6 -9.76004
395 2 16 38.4 0 -9.75583
366 2 20.8 36.8 1.6 -9.72786
397 1 19.2 38.4 0 -11.7293
368 2 24 36.8 1.6 -9.74946
399 1 22.4 38.4 0 -11.7808
401 1 25.6 38.4 0 -11.7846
370 3 27.2 36.8 1.6 -11.0834
403 1 28.8 38.4 0 -11.7849
372 2 30.4 36.8 1.6 -9.83826
405 2 32 38.4 0 -9.79841
374 1 33.6 36.8 1.6 -11.7054
407 2 35.2 38.4 0 -9.78404
376 2 36.8 36.8 1.6 -9.80347
409 2 38.4 38.4 0 -9.75454
378 2 40 36.8 1.6 -9.78487
411 2 41.6 38.4 0 -9.77226
380 1 43.2 36.8 1.6 -11.5653
413 2 44.8 38.4 0 -9.76702
382 1 46.4 36.8 1.6 -11.7029
415 2 48 38.4 0 -9.73098
384 1 49.6 36.8 1.6 -11.7286
386 1 1.6 40 1.6 -11.6612
417 3 0 41.6 0 -11.116
388 1 4.8 40 1.6 -11.611
419 2 3.2 41.6 0 -9.69663
390 2 8 40 1.6 -9.63762
421 1 6.4 41.6 0 -11.6184
392 2 11.2 40 1.6 -9.72425
423 1 9.6 41.6 0 -11.6885
394 2 14.4 40 1.6 -9.72723
425 1 12.8 41.6 0 -11.7594
396 2 17.6 40 1.6 -9.75502
427 1 16 41.6 0 -11.7594
398 3 20.8 40 1.6 -11.1657
429 1 19.2 41.6 0 -11.7808
400 3 24 40 1.6 -11.0818
431 1 22.4 41.6 0 -11.8124
433 1 25.6 41.6 0 -11.7846
402 2 27.2 40 1.6 -9.70728
435 1 28.8 41.6 0 -11.7841
404 3 30.4 40 1.6 -11.2258
437 1 32 41.6 0 -11.6983
406 2 33.6 40 1.6 -9.73644
439 2 35.2 41.6 0 -9.70897
408 2 36.8 40 1.6 -9.81451
441 2 38.4 41.6 0 -9.72413
410 2 40 40 1.6 -9.81321
443 2 41.6 41.6 0 -9.72388
412 2 43.2 40 1.6 -9.74964
445 2 44.8 41.6 0 -9.62584
414 1 46.4 40 1.6 -11.6971
447 2 48 41.6 0 -9.68888
416 1 49.6 40 1.6 -11.7604
418 1 1.6 43.2 1.6 -11.7034
449 2 0 44.8 0 -9.73165
420 2 4.8 43.2 1.6 -9.70108
451 2 3.2 44.8 0 -9.75523
422 2 8 43.2 1.6 -9.72231
453 1 6.4 44.8 0 -11.7293
424 3 11.2 43.2 1.6 -11.1243
455 1 9.6 44.8 0 -11.7831
426 3 14.4 43.2 1.6 -11.206
457 1 12.8 44.8 0 -11.7811
428 3 17.6 43.2 1.6 -11.1654
459 1 16 44.8 0 -11.8124
430 3 20.8 43.2 1.6 -11.1238
461 1 19.2 44.8 0 -11.8124
432 2 24 43.2 1.6 -9.67747
463 1 22.4 44.8 0 -11.7511
465 1 25.6 44.8 0 -11.7504
434 3 27.2 43.2 1.6 -11.1201
467 1 28.8 44.8 0 -11.6854
436 2 30.4 43.2 1.6 -9.72897
469 1 32 44.8 0 -11.6184
438 2 33.6 43.2 1.6 -9.70979
471 2 35.2 44.8 0 -9.70046
440 1 36.8 43.2 1.6 -11.6535
473 2 38.4 44.8 0 -9.6154
442 1 40 43.2 1.6 -11.6656
475 3 41.6 44.8 0 -10.995
444 1 43.2 43.2 1.6 -11.6666
477 2 44.8 44.8 0 -9.58296
446 1 46.4 43.2 1.6 -11.6275
479 2 48 44.8 0 -9.62614
448 1 49.6 43.2 1.6 -11.6607
450 2 1.6 46.4 1.6 -9.76028
481 1 0 48 0 -11.6292
452 2 4.8 46.4 1.6 -9.75543
483 1 3.2 48 0 -11.7034
454 3 8 46.4 1.6 -11.0826
485 1 6.4 48 0 -11.7234
456 3 11.2 46.4 1.6 -11.1667
487 1 9.6 48 0 -11.8121
458 3 14.4 46.4 1.6 -11.1648
489 1 12.8 48 0 -11.7529
460 3 17.6 46.4 1.6 -11.1657
491 1 16 48 0 -11.7583
462 2 20.8 46.4 1.6 -9.64578
493 1 19.2 48 0 -11.7528
464 2 24 46.4 1.6 -9.65989
495 1 22.4 48 0 -11.6893
497 1 25.6 48 0 -11.7297
466 2 27.2 46.4 1.6 -9.70588
499 1 28.8 48 0 -11.7005
468 1 30.4 46.4 1.6 -11.5872
501 2 32 48 0 -9.69655
470 1 33.6 46.4 1.6 -11.6742
503 2 35.2 48 0 -9.81183
472 1 36.8 46.4 1.6 -11.6881
505 3 38.4 48 0 -11.1588
474 1 40 46.4 1.6 -11.6919
507 2 41.6 48 0 -9.61528
476 1 43.2 46.4 1.6 -11.6275
509 2 44.8 48 0 -9.6597
478 1 46.4 46.4 1.6 -11.6329
511 2 48 48 0 -9.70999
480 1 49.6 46.4 1.6 -11.6535
482 2 1.6 49.6 1.6 -9.66057
484 3 4.8 49.6 1.6 -10.9947
486 2 8 49.6 1.6 -9.74671
488 3 11.2 49.6 1.6 -11.2369
490 2 14.4 49.6 1.6 -9.70706
492 3 17.6 49.6 1.6 -11.1593
494 2 20.8 49.6 1.6 -9.6885
496 2 24 49.6 1.6 -9.66563
498 2 27.2 49.6 1.6 -9.78632
500 2 30.4 49.6 1.6 -9.72013
502 1 33.6 49.6 1.6 -11.7025
504 1 36.8 49.6 1.6 -11.7833
506 1 40 49.6 1.6 -11.7183
508 1 43.2 49.6 1.6 -11.6334
510 2 46.4 49.6 1.6 -9.74938
512 2 49.6 49.6 1.6 -9.70405
513 1 0 0 3.2 -11.6656
514 3 1.6 1.6 4.8 -10.9958
515 1 3.2 0 3.2 -11.6592
516 2 4.8 1.6 4.8 -9.65998
517 1 6.4 0 3.2 -11.6666
518 2 8 1.6 4.8 -9.72899
519 1 9.6 0 3.2 -11.783
520 3 11.2 1.6 4.8 -11.291
521 1 12.8 0 3.2 -11.783
522 2 14.4 1.6 4.8 -9.762
523 1 16 0 3.2 -11.7586
524 2 17.6 1.6 4.8 -9.84064
525 2 19.2 0 3.2 -9.76632
526 2 20.8 1.6 4.8 -9.75748
527 1 22.4 0 3.2 -11.6746
528 2 24 1.6 4.8 -9.67557
529 2 25.6 0 3.2 -9.72367
530 1 27.2 1.6 4.8 -11.6886
531 2 28.8 0 3.2 -9.76247
532 1 30.4 1.6 4.8 -11.7501
533 3 32 0 3.2 -11.1226
534 1 33.6 1.6 4.8 -11.7508
535 2 35.2 0 3.2 -9.6798
536 1 36.8 1.6 4.8 -11.7301
537 3 38.4 0 3.2 -11.1257
538 1 40 1.6 4.8 -11.7297
539 2 41.6 0 3.2 -9.61516
540 1 43.2 1.6 4.8 -11.6815
541 2 44.8 0 3.2 -9.72936
542 3 46.4 1.6 4.8 -11.1974
543 1 48 0 3.2 -11.6763
544 2 49.6 1.6 4.8 -9.63321
545 1 0 3.2 3.2 -11.6321
546 2 1.6 4.8 4.8 -9.67277
547 1 3.2 3.2 3.2 -11.6945
548 2 4.8 4.8 4.8 -9.72413
549 1 6.4 3.2 3.2 -11.626
550 2 8 4.8 4.8 -9.75147
551 1 9.6 3.2 3.2 -11.7245
552 2 11.2 4.8 4.8 -9.76185
553 1 12.8 3.2 3.2 -11.7498
554 2 14.4 4.8 4.8 -9.7326
555 1 16 3.2 3.2 -11.7293
556 2 17.6 4.8 4.8 -9.69041
557 1 19.2 3.2 3.2 -11.6991
558 2 20.8 4.8 4.8 -9.6264
559 1 22.4 3.2 3.2 -11.6596
560 2 24 4.8 4.8 -9.62681
561 1 25.6 3.2 3.2 -11.6805
562 2 27.2 4.8 4.8 -9.70305
563 2 28.8 3.2 3.2 -9.7317
564 1 30.4 4.8 4.8 -11.7354
565 3 32 3.2 3.2 -11.1258
566 1 33.6 4.8 4.8 -11.7525
567 3 35.2 3.2 3.2 -11.1257
568 1 36.8 4.8 4.8 -11.7197
569 3 38.4 3.2 3.2 -11.126
570 1 40 4.8 4.8 -11.7293
571 3 41.6 3.2 3.2 -11.1252
572 1 43.2 4.8 4.8 -11.7629
573 2 44.8 3.2 3.2 -9.78573
574 2 46.4 4.8 4.8 -9.79157
575 1 48 3.2 3.2 -11.6496
576 1 49.6 4.8 4.8 -11.5622
577 2 0 6.4 3.2 -9.67261
578 1 1.6 8 4.8 -11.6429
579 1 3.2 6.4 3.2 -11.6166
580 2 4.8 8 4.8 -9.77597
581 1 6.4 6.4 3.2 -11.7193
582 2 8 8 4.8 -9.7877
583 1 9.6 6.4 3.2 -11.696
584 2 11.2 8 4.8 -9.7318
585 1 12.8 6.4 3.2 -11.7301
586 2 14.4 8 4.8 -9.65985
587 1 16 6.4 3.2 -11.6612
588 2 17.6 8 4.8 -9.66009
589 1 19.2 6.4 3.2 -11.6265
590 2 20.8 8 4.8 -9.63281
591 1 22.4 6.4 3.2 -11.6318
592 2 24 8 4.8 -9.63854
593 1 25.6 6.4 3.2 -11.542
594 1 27.2 8 4.8 -11.6181
595 2 28.8 6.4 3.2 -9.71065
596 2 30.4 8 4.8 -9.7336
597 2 32 6.4 3.2 -9.69133
598 1 33.6 8 4.8 -11.7635
599 3 35.2 6.4 3.2 -11.1678
600 1 36.8 8 4.8 -11.7245
601 2 38.4 6.4 3.2 -9.64817
602 1 40 8 4.8 -11.6651
603 3 41.6 6.4 3.2 -11.0832
604 1 43.2 8 4.8 -11.7349
605 3 44.8 6.4 3.2 -11.1203
606 1 46.4 8 4.8 -11.6611
607 2 48 6.4 3.2 -9.70613
608 1 49.6 8 4.8 -11.6265
609 3 0 9.6 3.2 -11.0405
610 1 1.6 11.2 4.8 -11.6911
611 2 3.2 9.6 3.2 -9.75678
612 1 4.8 11.2 4.8 -11.7277
613 3 6.4 9.6 3.2 -11.1886
614 1 8 11.2 4.8 -11.5899
615 1 9.6 9.6 3.2 -11.6665
616 2 11.2 11.2 4.8 -9.62918
617 1 12.8 9.6 3.2 -11.6597
618 3 14.4 11.2 4.8 -11.04
619 1 16 9.6 3.2 -11.6601
620 2 17.6 11.2 4.8 -9.66475
621 1 19.2 9.6 3.2 -11.6012
622 1 20.8 11.2 4.8 -11.4366
623 1 22.4 9.6 3.2 -11.5055
624 1 24 11.2 4.8 -11.5116
625 2 25.6 9.6 3.2 -9.64872
626 1 27.2 11.2 4.8 -11.6651
627 2 28.8 9.6 3.2 -9.76688
628 1 30.4 11.2 4.8 -11.6697
629 2 32 9.6 3.2 -9.73232
630 1 33.6 11.2 4.8 -11.6656
631 3 35.2 9.6 3.2 -11.0397
632 1 36.8 11.2 4.8 -11.6661
633 2 38.4 9.6 3.2 -9.61528
634 1 40 11.2 4.8 -11.6691
635 2 41.6 9.6 3.2 -9.69131
636 2 43.2 11.2 4.8 -9.75196
637 2 44.8 9.6 3.2 -9.72112
638 1 46.4 11.2 4.8 -11.6621
639 2 48 9.6 3.2 -9.58234
640 1 49.6 11.2 4.8 -11.662
641 2 0 12.8 3.2 -9.64817
642 1 1.6 14.4 4.8 -11.7187
643 2 3.2 12.8 3.2 -9.69042
644 1 4.8 14.4 4.8 -11.7262
645 2 6.4 12.8 3.2 -9.82202
646 2 8 14.4 4.8 -9.75103
647 1 9.6 12.8 3.2 -11.5959
648 3 11.2 14.4 4.8 -11.0403
649 1 12.8 12.8 3.2 -11.7223
650 3 14.4 14.4 4.8 -11.1665
651 1 16 12.8 3.2 -11.6889
652 2 17.6 14.4 4.8 -9.73172
653 1 19.2 12.8 3.2 -11.5351
654 1 20.8 14.4 4.8 -11.5328
655 1 22.4 12.8 3.2 -11.3613
656 1 24 14.4 4.8 -11.5978
657 2 25.6 12.8 3.2 -9.66714
658 1 27.2 14.4 4.8 -11.6656
659 2 28.8 12.8 3.2 -9.70029
660 1 30.4 14.4 4.8 -11.626
661 2 32 12.8 3.2 -9.62601
662 1 33.6 14.4 4.8 -11.6893
663 2 35.2 12.8 3.2 -9.61773
664 1 36.8 14.4 4.8 -11.6889
665 2 38.4 12.8 3.2 -9.58247
666 1 40 14.4 4.8 -11.6955
667 2 41.6 12.8 3.2 -9.68839
668 1 43.2 14.4 4.8 -11.7279
669 3 44.8 12.8 3.2 -11.1196
670 1 46.4 14.4 4.8 -11.6612
671 2 48 12.8 3.2 -9.6459
672 1 49.6 14.4 4.8 -11.6919
673 2 0 16 3.2 -9.64566
674 1 1.6 17.6 4.8 -11.7511
675 2 3.2 16 3.2 -9.61492
676 1 4.8 17.6 4.8 -11.7266
677 3 6.4 16 3.2 -11.2108
678 2 8 17.6 4.8 -9.7168
679 1 9.6 16 3.2 -11.6825
680 2 11.2 17.6 4.8 -9.61552
681 1 12.8 16 3.2 -11.7511
682 3 14.4 17.6 4.8 -11.2016
683 1 16 16 3.2 -11.759
684 2 17.6 17.6 4.8 -9.78979
685 2 19.2 16 3.2 -9.75583
686 1 20.8 17.6 4.8 -11.6681
687 2 22.4 16 3.2 -9.69457
688 1 24 17.6 4.8 -11.6672
689 2 25.6 16 3.2 -9.75597
690 1 27.2 17.6 4.8 -11.5995
691 2 28.8 16 3.2 -9.63806
692 1 30.4 17.6 4.8 -11.6296
693 2 32 16 3.2 -9.69246
694 1 33.6 17.6 4.8 -11.7724
695 3 35.2 16 3.2 -11.1268
696 1 36.8 17.6 4.8 -11.6462
697 3 38.4 16 3.2 -10.9952
698 1 40 17.6 4.8 -11.6714
699 2 41.6 16 3.2 -9.6918
700 1 43.2 17.6 4.8 -11.7013
701 2 44.8 16 3.2 -9.69144
702 1 46.4 17.6 4.8 -11.6569
703 3 48 16 3.2 -11.0829
704 1 49.6 17.6 4.8 -11.7532
705 3 0 19.2 3.2 -11.1651
706 1 1.6 20.8 4.8 -11.7844
707 2 3.2 19.2 3.2 -9.67735
708 1 4.8 20.8 4.8 -11.734
709 2 6.4 19.2 3.2 -9.78408
710 2 8 20.8 4.8 -9.7562
711 1 9.6 19.2 3.2 -11.6304
712 2 11.2 20.8 4.8 -9.6328
713 1 12.8 19.2 3.2 -11.6967
714 2 14.4 20.8 4.8 -9.78986
715 1 16 19.2 3.2 -11.7131
716 1 17.6 20.8 4.8 -11.7156
717 2 19.2 19.2 3.2 -9.7373
718 1 20.8 20.8 4.8 -11.6641
719 2 22.4 19.2 3.2 -9.76445
720 2 24 20.8 4.8 -9.83904
721 2 25.6 19.2 3.2 -9.79514
722 3 27.2 20.8 4.8 -11.1973
723 1 28.8 19.2 3.2 -11.6682
724 3 30.4 20.8 4.8 -11.1544
725 2 32 19.2 3.2 -9.74421
726 3 33.6 20.8 4.8 -11.3231
727 2 35.2 19.2 3.2 -9.71551
728 1 36.8 20.8 4.8 -11.6447
729 1 38.4 19.2 3.2 -11.4648
730 2 40 20.8 4.8 -9.75102
731 2 41.6 19.2 3.2 -9.70964
732 1 43.2 20.8 4.8 -11.6686
733 2 44.8 19.2 3.2 -9.65969
734 1 46.4 20.8 4.8 -11.6968
735 3 48 19.2 3.2 -11.0826
736 1 49.6 20.8 4.8 -11.7844
737 3 0 22.4 3.2 -11.2048
738 1 1.6 24 4.8 -11.8147
739 3 3.2 22.4 3.2 -11.1984
740 2 4.8 24 4.8 -9.77653
741 2 6.4 22.4 3.2 -9.81846
742 2 8 24 4.8 -9.70443
743 1 9.6 22.4 3.2 -11.5601
744 1 11.2 24 4.8 -11.6188
745 2 12.8 22.4 3.2 -9.72839
746 1 14.4 24 4.8 -11.7345
747 2 16 22.4 3.2 -9.76231
748 1 17.6 24 4.8 -11.7004
749 3 19.2 22.4 3.2 -11.0769
750 1 20.8 24 4.8 -11.6651
751 2 22.4 22.4 3.2 -9.78613
752 2 24 24 4.8 -9.84087
753 1 25.6 22.4 3.2 -11.7938
754 3 27.2 24 4.8 -11.12
755 1 28.8 22.4 3.2 -11.7209
756 2 30.4 24 4.8 -9.69196
757 1 32 22.4 3.2 -11.7598
758 2 33.6 24 4.8 -9.81017
759 2 35.2 22.4 3.2 -9.77724
760 1 36.8 24 4.8 -11.6604
761 2 38.4 22.4 3.2 -9.632
762 1 40 24 4.8 -11.6666
763 2 41.6 22.4 3.2 -9.72376
764 1 43.2 24 4.8 -11.627
765 2 44.8 22.4 3.2 -9.58272
766 1 46.4 24 4.8 -11.6578
767 2 48 22.4 3.2 -9.64566
768 1 49.6 24 4.8 -11.7811
769 3 0 25.6 3.2 -11.1648
771 3 3.2 25.6 3.2 -11.2748
773 3 6.4 25.6 3.2 -11.2268
775 2 9.6 25.6 3.2 -9.66617
777 3 12.8 25.6 3.2 -11.0408
779 3 16 25.6 3.2 -11.0403
781 2 19.2 25.6 3.2 -9.61586
783 2 22.4 25.6 3.2 -9.74392
785 2 25.6 25.6 3.2 -9.75195
787 1 28.8 25.6 3.2 -11.7022
789 2 32 25.6 3.2 -9.75525
791 2 35.2 25.6 3.2 -9.75235
793 2 38.4 25.6 3.2 -9.64601
795 3 41.6 25.6 3.2 -11.0397
797 2 44.8 25.6 3.2 -9.58259
799 2 48 25.6 3.2 -9.64841
770 1 1.6 27.2 4.8 -11.8122
801 3 0 28.8 3.2 -11.1246
772 1 4.8 27.2 4.8 -11.7833
803 3 3.2 28.8 3.2 -11.2048
774 1 8 27.2 4.8 -11.7308
805 3 6.4 28.8 3.2 -11.1246
776 1 11.2 27.2 4.8 -11.6656
807 2 9.6 28.8 3.2 -9.6154
778 1 14.4 27.2 4.8 -11.6573
809 2 12.8 28.8 3.2 -9.58272
780 1 17.6 27.2 4.8 -11.6275
811 2 16 28.8 3.2 -9.61785
782 1 20.8 27.2 4.8 -11.6313
813 2 19.2 28.8 3.2 -9.54847
784 2 24 27.2 4.8 -9.81395
815 2 22.4 28.8 3.2 -9.75582
817 1 25.6 28.8 3.2 -11.6691
786 2 27.2 27.2 4.8 -9.65673
819 1 28.8 28.8 3.2 -11.6307
788 2 30.4 27.2 4.8 -9.70059
821 2 32 28.8 3.2 -9.78622
790 1 33.6 27.2 4.8 -11.7415
823 3 35.2 28.8 3.2 -11.1265
792 1 36.8 27.2 4.8 -11.7505
825 3 38.4 28.8 3.2 -11.1617
794 1 40 27.2 4.8 -11.7242
827 2 41.6 28.8 3.2 -9.71901
796 1 43.2 27.2 4.8 -11.662
829 2 44.8 28.8 3.2 -9.62586
798 1 46.4 27.2 4.8 -11.6275
831 2 48 28.8 3.2 -9.65945
800 1 49.6 27.2 4.8 -11.7511
802 1 1.6 30.4 4.8 -11.7811
833 2 0 32 3.2 -9.61504
804 1 4.8 30.4 4.8 -11.7504
835 3 3.2 32 3.2 -11.167
806 1 8 30.4 4.8 -11.6462
837 2 6.4 32 3.2 -9.69148
808 1 11.2 30.4 4.8 -11.611
839 2 9.6 32 3.2 -9.63236
810 1 14.4 30.4 4.8 -11.6569
841 2 12.8 32 3.2 -9.66009
812 1 17.6 30.4 4.8 -11.6877
843 3 16 32 3.2 -11.1169
814 1 20.8 30.4 4.8 -11.6678
845 2 19.2 32 3.2 -9.65734
816 2 24 30.4 4.8 -9.7838
847 2 22.4 32 3.2 -9.73951
849 1 25.6 32 3.2 -11.7193
818 2 27.2 30.4 4.8 -9.65688
851 1 28.8 32 3.2 -11.6986
820 2 30.4 30.4 4.8 -9.76
853 2 32 32 3.2 -9.81395
822 1 33.6 30.4 4.8 -11.7349
855 2 35.2 32 3.2 -9.65958
824 1 36.8 30.4 4.8 -11.7176
857 2 38.4 32 3.2 -9.78067
826 1 40 30.4 4.8 -11.7643
859 2 41.6 32 3.2 -9.69343
828 1 43.2 30.4 4.8 -11.6265
861 2 44.8 32 3.2 -9.6906
830 1 46.4 30.4 4.8 -11.6334
863 2 48 32 3.2 -9.69036
832 1 49.6 30.4 4.8 -11.6578
834 1 1.6 33.6 4.8 -11.718
865 2 0 35.2 3.2 -9.68838
836 1 4.8 33.6 4.8 -11.759
867 3 3.2 35.2 3.2 -11.126
838 2 8 33.6 4.8 -9.75583
869 2 6.4 35.2 3.2 -9.75523
840 2 11.2 33.6 4.8 -9.75561
871 2 9.6 35.2 3.2 -9.75997
842 1 14.4 33.6 4.8 -11.7282
873 2 12.8 35.2 3.2 -9.75144
844 2 17.6 33.6 4.8 -9.78018
875 2 16 35.2 3.2 -9.78122
846 1 20.8 33.6 4.8 -11.6646
877 2 19.2 35.2 3.2 -9.72634
848 3 24 33.6 4.8 -11.264
879 2 22.4 35.2 3.2 -9.76801
881 1 25.6 35.2 3.2 -11.7856
850 3 27.2 33.6 4.8 -11.1617
883 1 28.8 35.2 3.2 -11.7576
852 2 30.4 33.6 4.8 -9.87002
885 2 32 35.2 3.2 -9.78331
854 2 33.6 33.6 4.8 -9.68941
887 2 35.2 35.2 3.2 -9.7669
856 1 36.8 33.6 4.8 -11.7078
889 2 38.4 35.2 3.2 -9.82807
858 2 40 33.6 4.8 -9.7776
891 1 41.6 35.2 3.2 -11.5423
860 1 43.2 33.6 4.8 -11.5975
893 2 44.8 35.2 3.2 -9.59228
862 1 46.4 33.6 4.8 -11.6666
895 2 48 35.2 3.2 -9.73662
864 1 49.6 33.6 4.8 -11.6334
866 1 1.6 36.8 4.8 -11.7616
897 3 0 38.4 3.2 -11.1162
868 1 4.8 36.8 4.8 -11.7303
899 2 3.2 38.4 3.2 -9.6154
870 2 8 36.8 4.8 -9.76037
901 2 6.4 38.4 3.2 -9.70075
872 2 11.2 36.8 4.8 -9.81428
903 1 9.6 38.4 3.2 -11.6451
874 1 14.4 36.8 4.8 -11.6691
905 2 12.8 38.4 3.2 -9.76057
876 2 17.6 36.8 4.8 -9.84115
907 2 16 38.4 3.2 -9.76057
878 3 20.8 36.8 4.8 -11.1129
909 1 19.2 38.4 3.2 -11.7627
880 2 24 36.8 4.8 -9.71793
911 1 22.4 38.4 3.2 -11.7572
913 1 25.6 38.4 3.2 -11.6915
882 3 27.2 36.8 4.8 -11.1666
915 1 28.8 38.4 3.2 -11.7803
884 3 30.4 36.8 4.8 -11.2245
917 2 32 38.4 3.2 -9.81664
886 1 33.6 36.8 4.8 -11.7059
919 2 35.2 38.4 3.2 -9.75955
888 2 36.8 36.8 4.8 -9.82879
921 1 38.4 38.4 3.2 -11.8018
890 3 40 36.8 4.8 -11.1294
923 1 41.6 38.4 3.2 -11.5992
892 1 43.2 36.8 4.8 -11.5325
925 2 44.8 38.4 3.2 -9.6647
894 1 46.4 36.8 4.8 -11.6949
927 3 48 38.4 3.2 -11.1595
896 2 49.6 36.8 4.8 -9.71085
898 1 1.6 40 4.8 -11.6666
929 2 0 41.6 3.2 -9.64636
900 1 4.8 40 4.8 -11.6302
931 2 3.2 41.6 3.2 -9.62643
902 2 8 40 4.8 -9.75576
933 2 6.4 41.6 3.2 -9.70135
904 2 11.2 40 4.8 -9.72958
935 1 9.6 41.6 3.2 -11.6656
906 1 14.4 40 4.8 -11.647
937 1 12.8 41.6 3.2 -11.7074
908 2 17.6 40 4.8 -9.79157
939 1 16 41.6 3.2 -11.7064
910 3 20.8 40 4.8 -11.1629
941 1 19.2 41.6 3.2 -11.7568
912 2 24 40 4.8 -9.61528
943 1 22.4 41.6 3.2 -11.7216
945 1 25.6 41.6 3.2 -11.6612
914 2 27.2 40 4.8 -9.61492
947 1 28.8 41.6 3.2 -11.7262
916 3 30.4 40 4.8 -11.2242
949 1 32 41.6 3.2 -11.6999
918 1 33.6 40 4.8 -11.6438
951 1 35.2 41.6 3.2 -11.6537
920 2 36.8 40 4.8 -9.81443
953 2 38.4 41.6 3.2 -9.75959
922 2 40 40 4.8 -9.79036
955 2 41.6 41.6 3.2 -9.75492
924 2 43.2 40 4.8 -9.75756
957 2 44.8 41.6 3.2 -9.72387
926 1 46.4 40 4.8 -11.6967
959 3 48 41.6 3.2 -11.04
928 1 49.6 40 4.8 -11.7201
930 1 1.6 43.2 4.8 -11.6307
961 2 0 44.8 3.2 -9.69083
932 1 4.8 43.2 4.8 -11.6522
963 2 3.2 44.8 3.2 -9.76037
934 2 8 43.2 4.8 -9.70019
965 1 6.4 44.8 3.2 -11.6895
936 2 11.2 43.2 4.8 -9.68891
967 1 9.6 44.8 3.2 -11.6889
938 3 14.4 43.2 4.8 -11.1512
969 1 12.8 44.8 3.2 -11.7806
940 2 17.6 43.2 4.8 -9.75946
971 1 16 44.8 3.2 -11.8141
942 2 20.8 43.2 4.8 -9.7051
973 1 19.2 44.8 3.2 -11.6885
944 2 24 43.2 4.8 -9.69086
975 1 22.4 44.8 3.2 -11.6661
977 1 25.6 44.8 3.2 -11.6816
946 2 27.2 43.2 4.8 -9.73303
979 2 28.8 44.8 3.2 -9.7238
948 2 30.4 43.2 4.8 -9.79049
981 2 32 44.8 3.2 -9.72801
950 2 33.6 43.2 4.8 -9.7574
983 2 35.2 44.8 3.2 -9.7314
952 2 36.8 43.2 4.8 -9.74943
985 2 38.4 44.8 3.2 -9.6596
954 1 40 43.2 4.8 -11.735
987 2 41.6 44.8 3.2 -9.61797
956 1 43.2 43.2 4.8 -11.6981
989 2 44.8 44.8 3.2 -9.54835
958 1 46.4 43.2 4.8 -11.6656
991 2 48 44.8 3.2 -9.58308
960 1 49.6 43.2 4.8 -11.6661
962 2 1.6 46.4 4.8 -9.81282
993 2 0 48 3.2 -9.75544
964 2 4.8 46.4 4.8 -9.70019
995 1 3.2 48 3.2 -11.7034
966 2 8 46.4 4.8 -9.65998
997 1 6.4 48 3.2 -11.6607
968 2 11.2 46.4 4.8 -9.6459
999 1 9.6 48 3.2 -11.7201
970 3 14.4 46.4 4.8 -11.2278
1001 1 12.8 48 3.2 -11.7525
972 2 17.6 46.4 4.8 -9.69315
1003 1 16 48 3.2 -11.7565
974 2 20.8 46.4 4.8 -9.63359
1005 1 19.2 48 3.2 -11.6922
976 2 24 46.4 4.8 -9.70105
1007 1 22.4 48 3.2 -11.6104
1009 2 25.6 48 3.2 -9.7015
978 1 27.2 46.4 4.8 -11.688
1011 2 28.8 48 3.2 -9.76257
980 1 30.4 46.4 4.8 -11.7285
1013 3 32 48 3.2 -11.2011
982 1 33.6 46.4 4.8 -11.759
1015 3 35.2 48 3.2 -11.1257
984 1 36.8 46.4 4.8 -11.7597
1017 3 38.4 48 3.2 -11.1666
986 1 40 46.4 4.8 -11.6911
1019 2 41.6 48 3.2 -9.58247
988 1 43.2 46.4 4.8 -11.6265
1021 2 44.8 48 3.2 -9.6264
990 1 46.4 46.4 4.8 -11.6313
1023 2 48 48 3.2 -9.7007
992 1 49.6 46.4 4.8 -11.7032
994 2 1.6 49.6 4.8 -9.72388
996 2 4.8 49.6 4.8 -9.65982
998 2 8 49.6 4.8 -9.72059
1000 3 11.2 49.6 4.8 -11.2241
1002 2 14.4 49.6 4.8 -9.76304
1004 2 17.6 49.6 4.8 -9.79188
1006 2 20.8 49.6 4.8 -9.70331
1008 1 24 49.6 4.8 -11.628
1010 1 27.2 49.6 4.8 -11.6957
1012 1 30.4 49.6 4.8 -11.8144
1014 1 33.6 49.6 4.8 -11.7809
1016 1 36.8 49.6 4.8 -11.7508
1018 1 40 49.6 4.8 -11.6889
1020 1 43.2 49.6 4.8 -11.6321
1022 1 46.4 49.6 4.8 -11.6492
1024 2 49.6 49.6 4.8 -9.69341
1025 1 0 0 6.4 -11.7029
1026 2 1.6 1.6 8 -9.665
1027 1 3.2 0 6.4 -11.6656
1028 2 4.8 1.6 8 -9.70026
1029 2 6.4 0 6.4 -9.74983
1030 1 8 1.6 8 -11.6537
1031 2 9.6 0 6.4 -9.82852
1032 2 11.2 1.6 8 -9.72976
1033 2 12.8 0 6.4 -9.78565
1034 1 14.4 1.6 8 -11.6881
1035 2 16 0 6.4 -9.78646
1036 1 17.6 1.6 8 -11.734
1037 2 19.2 0 6.4 -9.77901
1038 1 20.8 1.6 8 -11.645
1039 2 22.4 0 6.4 -9.63758
1040 1 24 1.6 8 -11.611
1041 2 25.6 0 6.4 -9.66063
1042 1 27.2 1.6 8 -11.6661
1043 3 28.8 0 6.4 -11.0832
1044 1 30.4 1.6 8 -11.7198
1045 3 32 0 6.4 -11.1654
1046 1 33.6 1.6 8 -11.7089
1047 2 35.2 0 6.4 -9.69123
1048 2 36.8 1.6 8 -9.69425
1049 2 38.4 0 6.4 -9.75487
1050 2 40 1.6 8 -9.7558
1051 2 41.6 0 6.4 -9.69925
1052 1 43.2 1.6 8 -11.6809
1053 2 44.8 0 6.4 -9.79366
1054 2 46.4 1.6 8 -9.87658
1055 1 48 0 6.4 -11.708
1056 2 49.6 1.6 8 -9.76013
1057 1 0 3.2 6.4 -11.6187
1058 2 1.6 4.8 8 -9.76093
1059 1 3.2 3.2 6.4 -11.6646
1060 2 4.8 4.8 8 -9.82919
1061 1 6.4 3.2 6.4 -11.6875
1062 2 8 4.8 8 -9.76605
1063 2 9.6 3.2 6.4 -9.78313
1064 1 11.2 4.8 8 -11.7162
1065 1 12.8 3.2 6.4 -11.6929
1066 2 14.4 4.8 8 -9.77648
1067 2 16 3.2 6.4 -9.75511
1068 2 17.6 4.8 8 -9.81299
1069 2 19.2 3.2 6.4 -9.75513
1070 2 20.8 4.8 8 -9.76082
1071 1 22.4 3.2 6.4 -11.6284
1072 2 24 4.8 8 -9.76082
1073 2 25.6 3.2 6.4 -9.70062
1074 2 27.2 4.8 8 -9.80365
1075 2 28.8 3.2 6.4 -9.75524
1076 1 30.4 4.8 8 -11.7667
1077 3 32 3.2 6.4 -11.1265
1078 1 33.6 4.8 8 -11.5779
1079 2 35.2 3.2 6.4 -9.66227
1080 1 36.8 4.8 8 -11.522
1081 2 38.4 3.2 6.4 -9.73157
1082 2 40 4.8 8 -9.69457
1083 2 41.6 3.2 6.4 -9.73155
1084 2 43.2 4.8 8 -9.80709
1085 2 44.8 3.2 6.4 -9.87652
1086 2 46.4 4.8 8 -9.83358
1087 2 48 3.2 6.4 -9.75954
1088 1 49.6 4.8 8 -11.6464
1089 2 0 6.4 6.4 -9.63299
1090 1 1.6 8 8 -11.6966
1091 2 3.2 6.4 6.4 -9.7604
1092 1 4.8 8 8 -11.7627
1093 2 6.4 6.4 6.4 -9.83876
1094 1 8 8 8 -11.7299
1095 2 9.6 6.4 6.4 -9.81438
1096 1 11.2 8 8 -11.6793
1097 2 12.8 6.4 6.4 -9.73151
1098 2 14.4 8 8 -9.77869
1099 1 16 6.4 6.4 -11.7035
1100 2 17.6 8 8 -9.81402
1101 1 19.2 6.4 6.4 -11.7065
1102 2 20.8 8 8 -9.81297
1103 1 22.4 6.4 6.4 -11.667