ITEM: TIMESTEP
0
ITEM: NUMBER OF ATOMS
8192
ITEM: BOX BOUNDS pp pp pp
0.0000000000000000e+00 5.1200000000000003e+01
0.0000000000000000e+00 5.1200000000000003e+01
0.0000000000000000e+00 5.1200000000000003e+01
ITEM: ATOMS id type x y z c_eng
1 1 0 0 0 -11.7024
2 3 1.6 1.6 1.6 -11.2278
3 1 3.2 0 0 -11.7869
4 3 4.8 1.6 1.6 -11.2034
5 1 6.4 0 0 -11.7806
6 3 8 1.6 1.6 -11.2031
7 1 9.6 0 0 -11.7826
8 2 11.2 1.6 1.6 -9.79086
9 1 12.8 0 0 -11.7583
10 2 14.4 1.6 1.6 -9.76679
11 1 16 0 0 -11.6651
12 2 17.6 1.6 1.6 -9.75815
13 1 19.2 0 0 -11.7308
14 2 20.8 1.6 1.6 -9.72695
15 1 22.4 0 0 -11.6881
16 2 24 1.6 1.6 -9.70031
17 1 25.6 0 0 -11.6964
18 2 27.2 1.6 1.6 -9.63202
19 1 28.8 0 0 -11.5501
20 1 30.4 1.6 1.6 -11.5376
21 2 32 0 0 -9.7543
22 1 33.6 1.6 1.6 -11.7287
23 2 35.2 0 0 -9.72953
24 1 36.8 1.6 1.6 -11.7143
25 2 38.4 0 0 -9.71847
26 1 40 1.6 1.6 -11.7291
27 2 41.6 0 0 -9.72376
28 1 43.2 1.6 1.6 -11.707
29 2 44.8 0 0 -9.76469
30 2 46.4 1.6 1.6 -9.70094
31 1 48 0 0 -11.5434
32 2 49.6 1.6 1.6 -9.65666
33 2 0 3.2 0 -9.67092
34 1 1.6 4.8 1.6 -11.6174
35 1 3.2 3.2 0 -11.6079
36 1 4.8 4.8 1.6 -11.4935
37 1 6.4 3.2 0 -11.674
38 2 8 4.8 1.6 -9.62469
39 1 9.6 3.2 0 -11.7583
40 2 11.2 4.8 1.6 -9.70274
41 1 12.8 3.2 0 -11.6764
42 2 14.4 4.8 1.6 -9.76647
43 2 16 3.2 0 -9.74322
44 2 17.6 4.8 1.6 -9.75193
45 2 19.2 3.2 0 -9.79907
46 2 20.8 4.8 1.6 -9.67794
47 1 22.4 3.2 0 -11.6811
48 3 24 4.8 1.6 -11.2211
49 1 25.6 3.2 0 -11.6927
50 2 27.2 4.8 1.6 -9.79587
51 1 28.8 3.2 0 -11.5206
52 1 30.4 4.8 1.6 -11.6275
53 2 32 3.2 0 -9.66707
54 1 33.6 4.8 1.6 -11.7587
55 2 35.2 3.2 0 -9.80785
56 1 36.8 4.8 1.6 -11.7287
57 2 38.4 3.2 0 -9.75549
58 1 40 4.8 1.6 -11.7303
59 2 41.6 3.2 0 -9.79174
60 2 43.2 4.8 1.6 -9.84116
61 2 44.8 3.2 0 -9.80377
62 2 46.4 4.8 1.6 -9.83365
63 1 48 3.2 0 -11.6174
64 2 49.6 4.8 1.6 -9.75552
65 2 0 6.4 0 -9.70766
66 1 1.6 8 1.6 -11.6689
67 2 3.2 6.4 0 -9.65058
68 2 4.8 8 1.6 -9.72602
69 1 6.4 6.4 0 -11.6256
70 2 8 8 1.6 -9.56086
71 1 9.6 6.4 0 -11.6
72 1 11.2 8 1.6 -11.581
73 2 12.8 6.4 0 -9.76516
74 2 14.4 8 1.6 -9.69999
75 1 16 6.4 0 -11.6516
76 2 17.6 8 1.6 -9.66297
77 1 19.2 6.4 0 -11.5623
78 1 20.8 8 1.6 -11.5442
79 2 22.4 6.4 0 -9.65031
80 2 24 8 1.6 -9.78894
81 2 25.6 6.4 0 -9.77882
82 1 27.2 8 1.6 -11.6126
83 2 28.8 6.4 0 -9.68412
84 1 30.4 8 1.6 -11.6064
85 2 32 6.4 0 -9.67304
86 1 33.6 8 1.6 -11.6328
87 2 35.2 6.4 0 -9.72772
88 1 36.8 8 1.6 -11.6333
89 2 38.4 6.4 0 -9.7668
90 2 40 8 1.6 -9.67689
91 2 41.6 6.4 0 -9.76629
92 1 43.2 8 1.6 -11.7308
93 2 44.8 6.4 0 -9.8261
94 1 46.4 8 1.6 -11.6931
95 2 48 6.4 0 -9.73136
96 1 49.6 8 1.6 -11.6661
97 2 0 9.6 0 -9.6597
98 1 1.6 11.2 1.6 -11.6916
99 2 3.2 9.6 0 -9.8451
100 2 4.8 11.2 1.6 -9.80564
101 1 6.4 9.6 0 -11.6859
102 2 8 11.2 1.6 -9.72996
103 1 9.6 9.6 0 -11.6114
104 2 11.2 11.2 1.6 -9.6412
105 2 12.8 9.6 0 -9.7682
106 2 14.4 11.2 1.6 -9.69207
107 1 16 9.6 0 -11.7368
108 3 17.6 11.2 1.6 -11.1465
109 2 19.2 9.6 0 -9.7735
110 2 20.8 11.2 1.6 -9.79105
111 2 22.4 9.6 0 -9.81393
112 2 24 11.2 1.6 -9.85958
113 2 25.6 9.6 0 -9.75442
114 2 27.2 11.2 1.6 -9.70268
115 1 28.8 9.6 0 -11.521
116 2 30.4 11.2 1.6 -9.63851
117 1 32 9.6 0 -11.5408
118 2 33.6 11.2 1.6 -9.63854
119 1 35.2 9.6 0 -11.5316
120 1 36.8 11.2 1.6 -11.6014
121 2 38.4 9.6 0 -9.66867
122 1 40 11.2 1.6 -11.6324
123 2 41.6 9.6 0 -9.65982
124 1 43.2 11.2 1.6 -11.5927
125 2 44.8 9.6 0 -9.58284
126 1 46.4 11.2 1.6 -11.6972
127 3 48 9.6 0 -10.9947
128 1 49.6 11.2 1.6 -11.6915
129 2 0 12.8 0 -9.61736
130 1 1.6 14.4 1.6 -11.7249
131 2 3.2 12.8 0 -9.83312
132 2 4.8 14.4 1.6 -9.80112
133 1 6.4 12.8 0 -11.726
134 3 8 14.4 1.6 -11.065
135 1 9.6 12.8 0 -11.6651
136 2 11.2 14.4 1.6 -9.69142
137 1 12.8 12.8 0 -11.7034
138 3 14.4 14.4 1.6 -11.0403
139 1 16 12.8 0 -11.6595
140 2 17.6 14.4 1.6 -9.69206
141 1 19.2 12.8 0 -11.6588
142 2 20.8 14.4 1.6 -9.70059
143 1 22.4 12.8 0 -11.7054
144 2 24 14.4 1.6 -9.75563
145 1 25.6 12.8 0 -11.7065
146 2 27.2 14.4 1.6 -9.70098
147 1 28.8 12.8 0 -11.5903
148 2 30.4 14.4 1.6 -9.70302
149 1 32 12.8 0 -11.6276
150 1 33.6 14.4 1.6 -11.6729
151 2 35.2 12.8 0 -9.67846
152 2 36.8 14.4 1.6 -9.81148
153 2 38.4 12.8 0 -9.7261
154 1 40 14.4 1.6 -11.7902
155 2 41.6 12.8 0 -9.6562
156 1 43.2 14.4 1.6 -11.7249
157 2 44.8 12.8 0 -9.58259
158 1 46.4 14.4 1.6 -11.6597
159 2 48 12.8 0 -9.64841
160 1 49.6 14.4 1.6 -11.6893
161 2 0 16 0 -9.68825
162 1 1.6 17.6 1.6 -11.6885
163 2 3.2 16 0 -9.66562
164 1 4.8 17.6 1.6 -11.5262
165 1 6.4 16 0 -11.5373
166 1 8 17.6 1.6 -11.4805
167 1 9.6 16 0 -11.5989
168 2 11.2 17.6 1.6 -9.62999
169 1 12.8 16 0 -11.6822
170 2 14.4 17.6 1.6 -9.58271
171 1 16 16 0 -11.682
172 2 17.6 17.6 1.6 -9.69117
173 1 19.2 16 0 -11.6879
174 2 20.8 17.6 1.6 -9.75538
175 1 22.4 16 0 -11.6699
176 2 24 17.6 1.6 -9.75563
177 1 25.6 16 0 -11.6307
178 2 27.2 17.6 1.6 -9.69398
179 1 28.8 16 0 -11.61
180 1 30.4 17.6 1.6 -11.6255
181 2 32 16 0 -9.76064
182 1 33.6 17.6 1.6 -11.7096
183 3 35.2 16 0 -11.2934
184 2 36.8 17.6 1.6 -9.81426
185 3 38.4 16 0 -11.2934
186 1 40 17.6 1.6 -11.6988
187 3 41.6 16 0 -11.202
188 1 43.2 17.6 1.6 -11.7468
189 3 44.8 16 0 -11.04
190 1 46.4 17.6 1.6 -11.659
191 2 48 16 0 -9.68825
192 1 49.6 17.6 1.6 -11.759
193 3 0 19.2 0 -11.1196
194 1 1.6 20.8 1.6 -11.7301
195 2 3.2 19.2 0 -9.6962
196 2 4.8 20.8 1.6 -9.70035
197 1 6.4 19.2 0 -11.502
198 2 8 20.8 1.6 -9.76117
199 1 9.6 19.2 0 -11.5809
200 3 11.2 20.8 1.6 -11.0697
201 1 12.8 19.2 0 -11.6979
202 2 14.4 20.8 1.6 -9.66687
203 1 16 19.2 0 -11.6084
204 2 17.6 20.8 1.6 -9.70578
205 1 19.2 19.2 0 -11.6643
206 2 20.8 20.8 1.6 -9.81311
207 1 22.4 19.2 0 -11.7051
208 2 24 20.8 1.6 -9.70363
209 1 25.6 19.2 0 -11.6307
210 2 27.2 20.8 1.6 -9.7247
211 1 28.8 19.2 0 -11.6091
212 2 30.4 20.8 1.6 -9.76409
213 2 32 19.2 0 -9.85412
214 2 33.6 20.8 1.6 -9.84528
215 2 35.2 19.2 0 -9.80067
216 2 36.8 20.8 1.6 -9.76078
217 2 38.4 19.2 0 -9.73331
218 2 40 20.8 1.6 -9.7417
219 2 41.6 19.2 0 -9.6234
220 3 43.2 20.8 1.6 -11.1888
221 2 44.8 19.2 0 -9.69476
222 1 46.4 20.8 1.6 -11.7151
223 2 48 19.2 0 -9.68849
224 1 49.6 20.8 1.6 -11.7217
225 2 0 22.4 0 -9.54499
226 1 1.6 24 1.6 -11.5509
227 2 3.2 22.4 0 -9.66556
228 1 4.8 24 1.6 -11.6303
229 1 6.4 22.4 0 -11.6494
230 3 8 24 1.6 -11.1248
231 2 9.6 22.4 0 -9.78549
232 1 11.2 24 1.6 -11.6323
233 2 12.8 22.4 0 -9.72025
234 1 14.4 24 1.6 -11.5843
235 2 16 22.4 0 -9.70942
236 2 17.6 24 1.6 -9.74943
237 2 19.2 22.4 0 -9.76409
238 1 20.8 24 1.6 -11.7029
239 2 22.4 22.4 0 -9.72794
240 1 24 24 1.6 -11.5793
241 1 25.6 22.4 0 -11.6183
242 3 27.2 24 1.6 -10.9915
243 1 28.8 22.4 0 -11.7019
244 2 30.4 24 1.6 -9.73165
245 2 32 22.4 0 -9.8066
246 1 33.6 24 1.6 -11.6703
247 2 35.2 22.4 0 -9.7518
248 1 36.8 24 1.6 -11.6371
249 2 38.4 22.4 0 -9.67319
250 2 40 24 1.6 -9.74363
251 1 41.6 22.4 0 -11.6111
252 2 43.2 24 1.6 -9.82189
253 2 44.8 22.4 0 -9.66383
254 1 46.4 24 1.6 -11.6532
255 2 48 22.4 0 -9.5486
256 1 49.6 24 1.6 -11.549
257 1 0 25.6 0 -11.3694
259 2 3.2 25.6 0 -9.51399
261 2 6.4 25.6 0 -9.66632
263 3 9.6 25.6 0 -11.1628
265 2 12.8 25.6 0 -9.68901
267 2 16 25.6 0 -9.72934
269 2 19.2 25.6 0 -9.73218
271 3 22.4 25.6 0 -11.078
273 2 25.6 25.6 0 -9.63998
275 1 28.8 25.6 0 -11.7368
277 2 32 25.6 0 -9.78413
279 2 35.2 25.6 0 -9.64625
281 3 38.4 25.6 0 -11.1172
283 3 41.6 25.6 0 -11.2234
285 2 44.8 25.6 0 -9.78541
287 2 48 25.6 0 -9.63572
258 1 1.6 27.2 1.6 -11.552
289 2 0 28.8 0 -9.68794
260 1 4.8 27.2 1.6 -11.6939
291 2 3.2 28.8 0 -9.65645
262 1 8 27.2 1.6 -11.6988
293 2 6.4 28.8 0 -9.68827
264 2 11.2 27.2 1.6 -9.73316
295 2 9.6 28.8 0 -9.68865
266 1 14.4 27.2 1.6 -11.6918
297 2 12.8 28.8 0 -9.6562
268 1 17.6 27.2 1.6 -11.7358
299 2 16 28.8 0 -9.72322
270 1 20.8 27.2 1.6 -11.6588
301 2 19.2 28.8 0 -9.72347
272 1 24 27.2 1.6 -11.5399
303 2 22.4 28.8 0 -9.66677
305 1 25.6 28.8 0 -11.5339
274 2 27.2 27.2 1.6 -9.63083
307 1 28.8 28.8 0 -11.6473
276 2 30.4 27.2 1.6 -9.77781
309 3 32 28.8 0 -11.2518
278 1 33.6 27.2 1.6 -11.7234
311 3 35.2 28.8 0 -11.1249
280 1 36.8 27.2 1.6 -11.6911
313 2 38.4 28.8 0 -9.69197
282 1 40 27.2 1.6 -11.7607
315 2 41.6 28.8 0 -9.80897
284 2 43.2 27.2 1.6 -9.83337
317 3 44.8 28.8 0 -11.3234
286 2 46.4 27.2 1.6 -9.77244
319 2 48 28.8 0 -9.88532
288 1 49.6 27.2 1.6 -11.6167
290 1 1.6 30.4 1.6 -11.7012
321 2 0 32 0 -9.78075
292 2 4.8 30.4 1.6 -9.76708
323 2 3.2 32 0 -9.68813
294 1 8 30.4 1.6 -11.6986
325 3 6.4 32 0 -11.1622
296 1 11.2 30.4 1.6 -11.6606
327 2 9.6 32 0 -9.65984
298 1 14.4 30.4 1.6 -11.6889
329 2 12.8 32 0 -9.62586
300 1 17.6 30.4 1.6 -11.7301
331 2 16 32 0 -9.65982
302 1 20.8 30.4 1.6 -11.6254
333 2 19.2 32 0 -9.69966
304 1 24 30.4 1.6 -11.5136
335 2 22.4 32 0 -9.63822
337 1 25.6 32 0 -11.5458
306 2 27.2 30.4 1.6 -9.56191
339 1 28.8 32 0 -11.6302
308 2 30.4 30.4 1.6 -9.71687
341 2 32 32 0 -9.89096
310 1 33.6 30.4 1.6 -11.7927
343 3 35.2 32 0 -11.1627
312 1 36.8 30.4 1.6 -11.6595
345 2 38.4 32 0 -9.55917
314 2 40 30.4 1.6 -9.63261
347 1 41.6 32 0 -11.6036
316 2 43.2 30.4 1.6 -9.76358
349 1 44.8 32 0 -11.6591
318 2 46.4 30.4 1.6 -9.83632
351 2 48 32 0 -9.80822
320 2 49.6 30.4 1.6 -9.84846
322 1 1.6 33.6 1.6 -11.6666
353 2 0 35.2 0 -9.69899
324 1 4.8 33.6 1.6 -11.7568
355 2 3.2 35.2 0 -9.67758
326 1 8 33.6 1.6 -11.7233
357 3 6.4 35.2 0 -11.1629
328 1 11.2 33.6 1.6 -11.6721
359 2 9.6 35.2 0 -9.70074
330 1 14.4 33.6 1.6 -11.6265
361 2 12.8 35.2 0 -9.71916
332 1 17.6 33.6 1.6 -11.6651
363 2 16 35.2 0 -9.56161
334 1 20.8 33.6 1.6 -11.7062
365 2 19.2 35.2 0 -9.72936
336 1 24 33.6 1.6 -11.5601
367 2 22.4 35.2 0 -9.78809
369 1 25.6 35.2 0 -11.6241
338 2 27.2 33.6 1.6 -9.57175
371 1 28.8 35.2 0 -11.7444
340 2 30.4 33.6 1.6 -9.82487
373 3 32 35.2 0 -11.266
342 2 33.6 33.6 1.6 -9.77964
375 2 35.2 35.2 0 -9.73436
344 1 36.8 33.6 1.6 -11.4866
377 2 38.4 35.2 0 -9.60862
346 1 40 33.6 1.6 -11.5143
379 3 41.6 35.2 0 -11.2479
348 2 43.2 33.6 1.6 -9.58821
381 2 44.8 35.2 0 -9.7879
350 1 46.4 33.6 1.6 -11.6188
383 2 48 35.2 0 -9.77249
352 2 49.6 33.6 1.6 -9.7332
354 1 1.6 36.8 1.6 -11.6885
385 2 0 38.4 0 -9.68863
356 1 4.8 36.8 1.6 -11.7519
387 3 3.2 38.4 0 -11.04
358 1 8 36.8 1.6 -11.6334
389 2 6.4 38.4 0 -9.70198
360 1 11.2 36.8 1.6 -11.4723
391 1 9.6 38.4 0 -11.5296
362 1 14.4 36.8 1.6 -11.5465
393 2 12.8 38.4 0 -9.59759
364 2 17.6 36.8 1.6 -9.69542
395 1 16 38.4 0 -11.513
366 2 20.8 36.8 1.6 -9.84152
397 1 19.2 38.4 0 -11.6267
368 2 24 36.8 1.6 -9.72645
399 1 22.4 38.4 0 -11.759
401 1 25.6 38.4 0 -11.6911
370 2 27.2 36.8 1.6 -9.69219
403 1 28.8 38.4 0 -11.7227
372 2 30.4 36.8 1.6 -9.81316
405 1 32 38.4 0 -11.657
374 1 33.6 36.8 1.6 -11.576
407 2 35.2 38.4 0 -9.60065
376 1 36.8 36.8 1.6 -11.4401
409 1 38.4 38.4 0 -11.5977
378 2 40 36.8 1.6 -9.55041
411 3 41.6 38.4 0 -11.0949
380 1 43.2 36.8 1.6 -11.68
413 2 44.8 38.4 0 -9.71819
382 1 46.4 36.8 1.6 -11.6307
415 2 48 38.4 0 -9.69088
384 1 49.6 36.8 1.6 -11.709
386 1 1.6 40 1.6 -11.6564
417 2 0 41.6 0 -9.72936
388 1 4.8 40 1.6 -11.7047
419 2 3.2 41.6 0 -9.67201
390 2 8 40 1.6 -9.63804
421 1 6.4 41.6 0 -11.6273
392 1 11.2 40 1.6 -11.3892
423 1 9.6 41.6 0 -11.5657
394 2 14.4 40 1.6 -9.60749
425 1 12.8 41.6 0 -11.6303
396 2 17.6 40 1.6 -9.66023
427 1 16 41.6 0 -11.6885
398 2 20.8 40 1.6 -9.72336
429 1 19.2 41.6 0 -11.7227
400 2 24 40 1.6 -9.72335
431 1 22.4 41.6 0 -11.7297
433 1 25.6 41.6 0 -11.6592
402 3 27.2 40 1.6 -10.9947
435 1 28.8 41.6 0 -11.7009
404 2 30.4 40 1.6 -9.6923
437 1 32 41.6 0 -11.5647
406 2 33.6 40 1.6 -9.60881
439 1 35.2 41.6 0 -11.6322
408 3 36.8 40 1.6 -11.0604
441 2 38.4 41.6 0 -9.78056
410 1 40 40 1.6 -11.6155
443 2 41.6 41.6 0 -9.76586
412 1 43.2 40 1.6 -11.6359
445 1 44.8 41.6 0 -11.6289
414 1 46.4 40 1.6 -11.5643
447 2 48 41.6 0 -9.69358
416 1 49.6 40 1.6 -11.6318
418 1 1.6 43.2 1.6 -11.6884
449 2 0 44.8 0 -9.8231
420 2 4.8 43.2 1.6 -9.75376
451 1 3.2 44.8 0 -11.6872
422 2 8 43.2 1.6 -9.78105
453 1 6.4 44.8 0 -11.695
424 2 11.2 43.2 1.6 -9.59774
455 1 9.6 44.8 0 -11.627
426 3 14.4 43.2 1.6 -11.0846
457 1 12.8 44.8 0 -11.6897
428 3 17.6 43.2 1.6 -11.0829
459 1 16 44.8 0 -11.7828
430 2 20.8 43.2 1.6 -9.7217
461 1 19.2 44.8 0 -11.7844
432 2 24 43.2 1.6 -9.73195
463 1 22.4 44.8 0 -11.7504
465 1 25.6 44.8 0 -11.7639
434 2 27.2 43.2 1.6 -9.78347
467 2 28.8 44.8 0 -9.78713
436 2 30.4 43.2 1.6 -9.75502
469 2 32 44.8 0 -9.79222
438 2 33.6 43.2 1.6 -9.6941
471 2 35.2 44.8 0 -9.77291
440 2 36.8 43.2 1.6 -9.83926
473 2 38.4 44.8 0 -9.76406
442 1 40 43.2 1.6 -11.7363
475 2 41.6 44.8 0 -9.81389
444 2 43.2 43.2 1.6 -9.76959
477 2 44.8 44.8 0 -9.81224
446 2 46.4 43.2 1.6 -9.80468
479 2 48 44.8 0 -9.81666
448 2 49.6 43.2 1.6 -9.78572
450 2 1.6 46.4 1.6 -9.72972
481 2 0 48 0 -9.82087
452 2 4.8 46.4 1.6 -9.78218
483 1 3.2 48 0 -11.7599
454 3 8 46.4 1.6 -11.1196
485 1 6.4 48 0 -11.7604
456 2 11.2 46.4 1.6 -9.64624
487 1 9.6 48 0 -11.7205
458 2 14.4 46.4 1.6 -9.65852
489 1 12.8 48 0 -11.7201
460 3 17.6 46.4 1.6 -11.2031
491 1 16 48 0 -11.7575
462 3 20.8 46.4 1.6 -11.1241
493 1 19.2 48 0 -11.7806
464 2 24 46.4 1.6 -9.78177
495 1 22.4 48 0 -11.7844
497 1 25.6 48 0 -11.7596
466 2 27.2 46.4 1.6 -9.8388
499 1 28.8 48 0 -11.6989
468 1 30.4 46.4 1.6 -11.6587
501 2 32 48 0 -9.74246
470 1 33.6 46.4 1.6 -11.6683
503 2 35.2 48 0 -9.63295
472 1 36.8 46.4 1.6 -11.6313
505 2 38.4 48 0 -9.62653
474 1 40 46.4 1.6 -11.6656
507 2 41.6 48 0 -9.72388
476 1 43.2 46.4 1.6 -11.7024
509 2 44.8 48 0 -9.70997
478 1 46.4 46.4 1.6 -11.6805
511 1 48 48 0 -11.6138
480 1 49.6 46.4 1.6 -11.7108
482 3 1.6 49.6 1.6 -11.2677
484 3 4.8 49.6 1.6 -11.1251
486 3 8 49.6 1.6 -11.1676
488 3 11.2 49.6 1.6 -11.1622
490 2 14.4 49.6 1.6 -9.76059
492 2 17.6 49.6 1.6 -9.75753
494 3 20.8 49.6 1.6 -11.2041
496 3 24 49.6 1.6 -11.1151
498 2 27.2 49.6 1.6 -9.69353
500 1 30.4 49.6 1.6 -11.5724
502 1 33.6 49.6 1.6 -11.6654
504 1 36.8 49.6 1.6 -11.5935
506 1 40 49.6 1.6 -11.6573
508 1 43.2 49.6 1.6 -11.6966
510 2 46.4 49.6 1.6 -9.69523
512 2 49.6 49.6 1.6 -9.72972
513 1 0 0 3.2 -11.7565
514 2 1.6 1.6 4.8 -9.7562
515 1 3.2 0 3.2 -11.8128
516 3 4.8 1.6 4.8 -11.1929
517 1 6.4 0 3.2 -11.7875
518 2 8 1.6 4.8 -9.76882
519 1 9.6 0 3.2 -11.7407
520 1 11.2 1.6 4.8 -11.6852
521 2 12.8 0 3.2 -9.76942
522 2 14.4 1.6 4.8 -9.75662
523 1 16 0 3.2 -11.6782
524 1 17.6 1.6 4.8 -11.6254
525 2 19.2 0 3.2 -9.7199
526 1 20.8 1.6 4.8 -11.6092
527 1 22.4 0 3.2 -11.599
528 1 24 1.6 4.8 -11.5676
529 2 25.6 0 3.2 -9.66185
530 1 27.2 1.6 4.8 -11.6373
531 1 28.8 0 3.2 -11.4928
532 1 30.4 1.6 4.8 -11.6524
533 3 32 0 3.2 -11.0805
534 1 33.6 1.6 4.8 -11.7568
535 2 35.2 0 3.2 -9.61504
536 1 36.8 1.6 4.8 -11.6911
537 2 38.4 0 3.2 -9.6459
538 1 40 1.6 4.8 -11.7525
539 3 41.6 0 3.2 -11.1265
540 1 43.2 1.6 4.8 -11.7323
541 2 44.8 0 3.2 -9.75778
542 2 46.4 1.6 4.8 -9.66616
543 1 48 0 3.2 -11.6678
544 2 49.6 1.6 4.8 -9.62624
545 2 0 3.2 3.2 -9.77642
546 1 1.6 4.8 4.8 -11.6254
547 2 3.2 3.2 3.2 -9.70751
548 2 4.8 4.8 4.8 -9.70326
549 1 6.4 3.2 3.2 -11.6885
550 2 8 4.8 4.8 -9.63773
551 2 9.6 3.2 3.2 -9.72007
552 1 11.2 4.8 4.8 -11.63
553 2 12.8 3.2 3.2 -9.81305
554 2 14.4 4.8 4.8 -9.76455
555 1 16 3.2 3.2 -11.6812
556 2 17.6 4.8 4.8 -9.70054
557 2 19.2 3.2 3.2 -9.75692
558 2 20.8 4.8 4.8 -9.66749
559 1 22.4 3.2 3.2 -11.6062
560 2 24 4.8 4.8 -9.76321
561 2 25.6 3.2 3.2 -9.77505
562 2 27.2 4.8 4.8 -9.76032
563 2 28.8 3.2 3.2 -9.66478
564 1 30.4 4.8 4.8 -11.5959
565 3 32 3.2 3.2 -11.1282
566 1 33.6 4.8 4.8 -11.7305
567 3 35.2 3.2 3.2 -11.1265
568 1 36.8 4.8 4.8 -11.7293
569 3 38.4 3.2 3.2 -11.0846
570 1 40 4.8 4.8 -11.6694
571 3 41.6 3.2 3.2 -11.157
572 2 43.2 4.8 4.8 -9.81385
573 1 44.8 3.2 3.2 -11.6907
574 2 46.4 4.8 4.8 -9.79853
575 1 48 3.2 3.2 -11.6667
576 2 49.6 4.8 4.8 -9.76061
577 2 0 6.4 3.2 -9.69106
578 1 1.6 8 4.8 -11.6313
579 2 3.2 6.4 3.2 -9.70148
580 2 4.8 8 4.8 -9.6947
581 1 6.4 6.4 3.2 -11.5637
582 2 8 8 4.8 -9.77313
583 1 9.6 6.4 3.2 -11.6325
584 2 11.2 8 4.8 -9.67136
585 2 12.8 6.4 3.2 -9.69542
586 2 14.4 8 4.8 -9.62693
587 1 16 6.4 3.2 -11.6307
588 2 17.6 8 4.8 -9.63311
589 1 19.2 6.4 3.2 -11.5263
590 1 20.8 8 4.8 -11.4374
591 1 22.4 6.4 3.2 -11.5602
592 2 24 8 4.8 -9.65354
593 1 25.6 6.4 3.2 -11.7099
594 2 27.2 8 4.8 -9.78372
595 2 28.8 6.4 3.2 -9.73992
596 2 30.4 8 4.8 -9.73027
597 3 32 6.4 3.2 -11.1571
598 2 33.6 8 4.8 -9.74072
599 3 35.2 6.4 3.2 -11.16
600 1 36.8 8 4.8 -11.6601
601 2 38.4 6.4 3.2 -9.69194
602 1 40 8 4.8 -11.6477
603 2 41.6 6.4 3.2 -9.81905
604 2 43.2 8 4.8 -9.66521
605 3 44.8 6.4 3.2 -11.2019
606 1 46.4 8 4.8 -11.6845
607 2 48 6.4 3.2 -9.78413
608 1 49.6 8 4.8 -11.6651
609 2 0 9.6 3.2 -9.58247
610 1 1.6 11.2 4.8 -11.6889
611 2 3.2 9.6 3.2 -9.73304
612 1 4.8 11.2 4.8 -11.6147
613 1 6.4 9.6 3.2 -11.6458
614 2 8 11.2 4.8 -9.72634
615 2 9.6 9.6 3.2 -9.71131
616 2 11.2 11.2 4.8 -9.77266
617 1 12.8 9.6 3.2 -11.655
618 2 14.4 11.2 4.8 -9.58284
619 1 16 9.6 3.2 -11.6606
620 2 17.6 11.2 4.8 -9.733
621 2 19.2 9.6 3.2 -9.72247
622 1 20.8 11.2 4.8 -11.6455
623 2 22.4 9.6 3.2 -9.75905
624 1 24 11.2 4.8 -11.6976
625 2 25.6 9.6 3.2 -9.85025
626 1 27.2 11.2 4.8 -11.6697
627 2 28.8 9.6 3.2 -9.71307
628 1 30.4 11.2 4.8 -11.6451
629 2 32 9.6 3.2 -9.75296
630 1 33.6 11.2 4.8 -11.6458
631 2 35.2 9.6 3.2 -9.66909
632 1 36.8 11.2 4.8 -11.6091
633 2 38.4 9.6 3.2 -9.62649
634 1 40 11.2 4.8 -11.542
635 2 41.6 9.6 3.2 -9.69997
636 1 43.2 11.2 4.8 -11.5656
637 2 44.8 9.6 3.2 -9.67477
638 2 46.4 11.2 4.8 -9.6312
639 2 48 9.6 3.2 -9.71839
640 1 49.6 11.2 4.8 -11.7792
641 3 0 12.8 3.2 -11.1666
642 1 1.6 14.4 4.8 -11.7844
643 3 3.2 12.8 3.2 -11.1892
644 1 4.8 14.4 4.8 -11.726
645 2 6.4 12.8 3.2 -9.75425
646 1 8 14.4 4.8 -11.7365
647 1 9.6 12.8 3.2 -11.7187
648 2 11.2 14.4 4.8 -9.75902
649 1 12.8 12.8 3.2 -11.6564
650 3 14.4 14.4 4.8 -11.0408
651 1 16 12.8 3.2 -11.6907
652 2 17.6 14.4 4.8 -9.67234
653 1 19.2 12.8 3.2 -11.6572
654 1 20.8 14.4 4.8 -11.6091
655 2 22.4 12.8 3.2 -9.69398
656 1 24 14.4 4.8 -11.6318
657 2 25.6 12.8 3.2 -9.69374
658 1 27.2 14.4 4.8 -11.6449
659 1 28.8 12.8 3.2 -11.6266
660 2 30.4 14.4 4.8 -9.71514
661 2 32 12.8 3.2 -9.70907
662 1 33.6 14.4 4.8 -11.7054
663 2 35.2 12.8 3.2 -9.76699
664 2 36.8 14.4 4.8 -9.86862
665 2 38.4 12.8 3.2 -9.6937
666 2 40 14.4 4.8 -9.77318
667 2 41.6 12.8 3.2 -9.66283
668 2 43.2 14.4 4.8 -9.71129
669 2 44.8 12.8 3.2 -9.67477
670 1 46.4 14.4 4.8 -11.7008
671 3 48 12.8 3.2 -11.1588
672 1 49.6 14.4 4.8 -11.8122
673 3 0 16 3.2 -11.1248
674 1 1.6 17.6 4.8 -11.7511
675 2 3.2 16 3.2 -9.71904
676 1 4.8 17.6 4.8 -11.6922
677 2 6.4 16 3.2 -9.76749
678 2 8 17.6 4.8 -9.75119
679 2 9.6 16 3.2 -9.75045
680 3 11.2 17.6 4.8 -11.1467
681 1 12.8 16 3.2 -11.7274
682 2 14.4 17.6 4.8 -9.61598
683 1 16 16 3.2 -11.6975
684 2 17.6 17.6 4.8 -9.69441
685 2 19.2 16 3.2 -9.75565
686 1 20.8 17.6 4.8 -11.6681
687 2 22.4 16 3.2 -9.75585
688 1 24 17.6 4.8 -11.6304
689 2 25.6 16 3.2 -9.75585
690 1 27.2 17.6 4.8 -11.6675
691 2 28.8 16 3.2 -9.70909
692 1 30.4 17.6 4.8 -11.6865
693 2 32 16 3.2 -9.76744
694 2 33.6 17.6 4.8 -9.78888
695 2 35.2 16 3.2 -9.85111
696 3 36.8 17.6 4.8 -11.2674
697 2 38.4 16 3.2 -9.87921
698 1 40 17.6 4.8 -11.7491
699 3 41.6 16 3.2 -11.1892
700 1 43.2 17.6 4.8 -11.7302
701 2 44.8 16 3.2 -9.68865
702 1 46.4 17.6 4.8 -11.7197
703 2 48 16 3.2 -9.67735
704 1 49.6 17.6 4.8 -11.8122
705 3 0 19.2 3.2 -11.206
706 1 1.6 20.8 4.8 -11.7183
707 2 3.2 19.2 3.2 -9.65961
708 1 4.8 20.8 4.8 -11.6689
709 2 6.4 19.2 3.2 -9.70392
710 2 8 20.8 4.8 -9.78413
711 1 9.6 19.2 3.2 -11.6704
712 2 11.2 20.8 4.8 -9.6923
713 1 12.8 19.2 3.2 -11.6607
714 2 14.4 20.8 4.8 -9.5622
715 1 16 19.2 3.2 -11.565
716 1 17.6 20.8 4.8 -11.5623
717 2 19.2 19.2 3.2 -9.76078
718 1 20.8 20.8 4.8 -11.6299
719 2 22.4 19.2 3.2 -9.7556
720 1 24 20.8 4.8 -11.6467
721 2 25.6 19.2 3.2 -9.7608
722 2 27.2 20.8 4.8 -9.69372
723 2 28.8 19.2 3.2 -9.76099
724 2 30.4 20.8 4.8 -9.73277
725 2 32 19.2 3.2 -9.72318
726 3 33.6 20.8 4.8 -11.1958
727 1 35.2 19.2 3.2 -11.7393
728 2 36.8 20.8 4.8 -9.71368
729 1 38.4 19.2 3.2 -11.6524
730 2 40 20.8 4.8 -9.77867
731 2 41.6 19.2 3.2 -9.77991
732 2 43.2 20.8 4.8 -9.90567
733 2 44.8 19.2 3.2 -9.806
734 2 46.4 20.8 4.8 -9.83353
735 3 48 19.2 3.2 -11.1583
736 1 49.6 20.8 4.8 -11.8141
737 3 0 22.4 3.2 -11.0838
738 1 1.6 24 4.8 -11.6573
739 2 3.2 22.4 3.2 -9.65998
740 1 4.8 24 4.8 -11.6837
741 2 6.4 22.4 3.2 -9.80241
742 3 8 24 4.8 -11.2861
743 1 9.6 22.4 3.2 -11.6877
744 2 11.2 24 4.8 -9.72448
745 1 12.8 22.4 3.2 -11.611
746 2 14.4 24 4.8 -9.75701
747 1 16 22.4 3.2 -11.6127
748 2 17.6 24 4.8 -9.80485
749 2 19.2 22.4 3.2 -9.76406
750 1 20.8 24 4.8 -11.6713
751 2 22.4 22.4 3.2 -9.71067
752 2 24 24 4.8 -9.62639
753 1 25.6 22.4 3.2 -11.5866
754 2 27.2 24 4.8 -9.61609
755 1 28.8 22.4 3.2 -11.6651
756 2 30.4 24 4.8 -9.71777
757 1 32 22.4 3.2 -11.7392
758 3 33.6 24 4.8 -11.2036
759 2 35.2 22.4 3.2 -9.68843
760 1 36.8 24 4.8 -11.6669
761 1 38.4 22.4 3.2 -11.6255
762 2 40 24 4.8 -9.77531
763 1 41.6 22.4 3.2 -11.765
764 2 43.2 24 4.8 -9.70533
765 2 44.8 22.4 3.2 -9.7751
766 2 46.4 24 4.8 -9.76073
767 2 48 22.4 3.2 -9.75242
768 1 49.6 24 4.8 -11.7349
769 2 0 25.6 3.2 -9.59249
771 2 3.2 25.6 3.2 -9.65671
773 2 6.4 25.6 3.2 -9.81151
775 1 9.6 25.6 3.2 -11.7058
777 2 12.8 25.6 3.2 -9.73088
779 2 16 25.6 3.2 -9.73125
781 2 19.2 25.6 3.2 -9.72375
783 2 22.4 25.6 3.2 -9.66955
785 1 25.6 25.6 3.2 -11.6105
787 1 28.8 25.6 3.2 -11.7004
789 2 32 25.6 3.2 -9.78772
791 2 35.2 25.6 3.2 -9.72185
793 2 38.4 25.6 3.2 -9.69952
795 2 41.6 25.6 3.2 -9.78761
797 1 44.8 25.6 3.2 -11.6537
799 2 48 25.6 3.2 -9.7017
770 1 1.6 27.2 4.8 -11.663
801 2 0 28.8 3.2 -9.6716
772 2 4.8 27.2 4.8 -9.81149
803 3 3.2 28.8 3.2 -11.2506
774 2 8 27.2 4.8 -9.83636
805 2 6.4 28.8 3.2 -9.87969
776 2 11.2 27.2 4.8 -9.77907
807 2 9.6 28.8 3.2 -9.74031
778 1 14.4 27.2 4.8 -11.7299
809 3 12.8 28.8 3.2 -11.1896
780 1 17.6 27.2 4.8 -11.7354
811 3 16 28.8 3.2 -11.1271
782 1 20.8 27.2 4.8 -11.6646
813 3 19.2 28.8 3.2 -11.0403
784 2 24 27.2 4.8 -9.72873
815 2 22.4 28.8 3.2 -9.66544
817 1 25.6 28.8 3.2 -11.5674
786 3 27.2 27.2 4.8 -10.996
819 1 28.8 28.8 3.2 -11.5956
788 2 30.4 27.2 4.8 -9.72808
821 2 32 28.8 3.2 -9.75979
790 1 33.6 27.2 4.8 -11.7773
823 3 35.2 28.8 3.2 -11.0851
792 1 36.8 27.2 4.8 -11.7196
825 2 38.4 28.8 3.2 -9.66841
794 1 40 27.2 4.8 -11.7002
827 2 41.6 28.8 3.2 -9.7643
796 1 43.2 27.2 4.8 -11.6269
829 2 44.8 28.8 3.2 -9.78238
798 2 46.4 27.2 4.8 -9.81725
831 1 48 28.8 3.2 -11.7521
800 2 49.6 27.2 4.8 -9.75696
802 1 1.6 30.4 4.8 -11.6971
833 2 0 32 3.2 -9.78089
804 2 4.8 30.4 4.8 -9.85608
835 2 3.2 32 3.2 -9.75087
806 2 8 30.4 4.8 -9.82804
837 2 6.4 32 3.2 -9.86929
808 1 11.2 30.4 4.8 -11.6568
839 2 9.6 32 3.2 -9.70001
810 1 14.4 30.4 4.8 -11.6885
841 2 12.8 32 3.2 -9.69207
812 1 17.6 30.4 4.8 -11.6881
843 3 16 32 3.2 -11.04
814 1 20.8 30.4 4.8 -11.6895
845 2 19.2 32 3.2 -9.69233
816 2 24 30.4 4.8 -9.70967
847 2 22.4 32 3.2 -9.7011
849 2 25.6 32 3.2 -9.57821
818 2 27.2 30.4 4.8 -9.60774
851 1 28.8 32 3.2 -11.5656
820 1 30.4 30.4 4.8 -11.5202
853 2 32 32 3.2 -9.7585
822 1 33.6 30.4 4.8 -11.6962
855 2 35.2 32 3.2 -9.6999
824 1 36.8 30.4 4.8 -11.7048
857 1 38.4 32 3.2 -11.4993
826 2 40 30.4 4.8 -9.77756
859 1 41.6 32 3.2 -11.5076
828 1 43.2 30.4 4.8 -11.5774
861 1 44.8 32 3.2 -11.482
830 2 46.4 30.4 4.8 -9.7573
863 2 48 32 3.2 -9.75357
832 2 49.6 30.4 4.8 -9.78114
834 1 1.6 33.6 4.8 -11.6583
865 2 0 35.2 3.2 -9.73244
836 1 4.8 33.6 4.8 -11.7299
867 3 3.2 35.2 3.2 -11.084
838 2 8 33.6 4.8 -9.82887
869 3 6.4 35.2 3.2 -11.2311
840 2 11.2 33.6 4.8 -9.75565
871 2 9.6 35.2 3.2 -9.72597
842 1 14.4 33.6 4.8 -11.6656
873 2 12.8 35.2 3.2 -9.62648
844 1 17.6 33.6 4.8 -11.6892
875 2 16 35.2 3.2 -9.72471
846 2 20.8 33.6 4.8 -9.70105
877 2 19.2 35.2 3.2 -9.76001
848 2 24 33.6 4.8 -9.71197
879 2 22.4 35.2 3.2 -9.80728
881 1 25.6 35.2 3.2 -11.6335
850 1 27.2 33.6 4.8 -11.5683
883 2 28.8 35.2 3.2 -9.62592
852 1 30.4 33.6 4.8 -11.5476
885 2 32 35.2 3.2 -9.83831
854 2 33.6 33.6 4.8 -9.81451
887 1 35.2 35.2 3.2 -11.5308
856 2 36.8 33.6 4.8 -9.72141
889 1 38.4 35.2 3.2 -11.4923
858 2 40 33.6 4.8 -9.72143
891 2 41.6 35.2 3.2 -9.68789
860 1 43.2 33.6 4.8 -11.5351
893 2 44.8 35.2 3.2 -9.56162
862 1 46.4 33.6 4.8 -11.5644
895 2 48 35.2 3.2 -9.69984
864 1 49.6 33.6 4.8 -11.738
866 1 1.6 36.8 4.8 -11.6022
897 2 0 38.4 3.2 -9.59848
868 1 4.8 36.8 4.8 -11.6758
899 3 3.2 38.4 3.2 -11.0823
870 2 8 36.8 4.8 -9.72303
901 2 6.4 38.4 3.2 -9.76612
872 2 11.2 36.8 4.8 -9.7043
903 1 9.6 38.4 3.2 -11.4938
874 1 14.4 36.8 4.8 -11.6455
905 1 12.8 38.4 3.2 -11.4859
876 2 17.6 36.8 4.8 -9.79129
907 2 16 38.4 3.2 -9.69343
878 2 20.8 36.8 4.8 -9.75131
909 1 19.2 38.4 3.2 -11.7065
880 2 24 36.8 4.8 -9.7669
911 2 22.4 38.4 3.2 -9.79279
913 1 25.6 38.4 3.2 -11.6651
882 2 27.2 36.8 4.8 -9.64153
915 1 28.8 38.4 3.2 -11.7048
884 2 30.4 36.8 4.8 -9.69431
917 2 32 38.4 3.2 -9.68994
886 2 33.6 36.8 4.8 -9.77383
919 1 35.2 38.4 3.2 -11.6017
888 2 36.8 36.8 4.8 -9.69107
921 1 38.4 38.4 3.2 -11.5635
890 2 40 36.8 4.8 -9.76132
923 1 41.6 38.4 3.2 -11.5779
892 1 43.2 36.8 4.8 -11.6097
925 2 44.8 38.4 3.2 -9.56114
894 1 46.4 36.8 4.8 -11.6123
927 2 48 38.4 3.2 -9.56118
896 2 49.6 36.8 4.8 -9.6329
898 1 1.6 40 4.8 -11.5656
929 2 0 41.6 3.2 -9.69061
900 2 4.8 40 4.8 -9.72216
931 2 3.2 41.6 3.2 -9.78139
902 2 8 40 4.8 -9.78431
933 2 6.4 41.6 3.2 -9.8549
904 2 11.2 40 4.8 -9.70485
935 2 9.6 41.6 3.2 -9.68413
906 2 14.4 40 4.8 -9.76043
937 1 12.8 41.6 3.2 -11.6327
908 2 17.6 40 4.8 -9.76398
939 1 16 41.6 3.2 -11.7349
910 2 20.8 40 4.8 -9.79581
941 1 19.2 41.6 3.2 -11.7034
912 2 24 40 4.8 -9.7663
943 2 22.4 41.6 3.2 -9.7338
945 1 25.6 41.6 3.2 -11.7404
914 2 27.2 40 4.8 -9.69115
947 1 28.8 41.6 3.2 -11.6651
916 2 30.4 40 4.8 -9.62585
949 1 32 41.6 3.2 -11.6713
918 2 33.6 40 4.8 -9.76679
951 1 35.2 41.6 3.2 -11.7325
920 2 36.8 40 4.8 -9.84099
953 2 38.4 41.6 3.2 -9.81277
922 2 40 40 4.8 -9.78066
955 3 41.6 41.6 3.2 -11.1453
924 2 43.2 40 4.8 -9.76504
957 2 44.8 41.6 3.2 -9.73972
926 1 46.4 40 4.8 -11.5537
959 2 48 41.6 3.2 -9.75168
928 1 49.6 40 4.8 -11.5801
930 1 1.6 43.2 4.8 -11.6691
961 2 0 44.8 3.2 -9.82195
932 2 4.8 43.2 4.8 -9.84825
963 2 3.2 44.8 3.2 -9.75425
934 2 8 43.2 4.8 -9.81343
965 2 6.4 44.8 3.2 -9.85086
936 2 11.2 43.2 4.8 -9.7962
967 1 9.6 44.8 3.2 -11.7344
938 2 14.4 43.2 4.8 -9.72773
969 1 12.8 44.8 3.2 -11.6296
940 2 17.6 43.2 4.8 -9.786
971 1 16 44.8 3.2 -11.7008
942 2 20.8 43.2 4.8 -9.76679
973 1 19.2 44.8 3.2 -11.7289
944 2 24 43.2 4.8 -9.70525
975 1 22.4 44.8 3.2 -11.7039
977 2 25.6 44.8 3.2 -9.78572
946 2 27.2 43.2 4.8 -9.76666
979 2 28.8 44.8 3.2 -9.80729
948 2 30.4 43.2 4.8 -9.70072
981 2 32 44.8 3.2 -9.75576
950 2 33.6 43.2 4.8 -9.81403
983 2 35.2 44.8 3.2 -9.75502
952 2 36.8 43.2 4.8 -9.85366
985 2 38.4 44.8 3.2 -9.69041
954 1 40 43.2 4.8 -11.7338
987 2 41.6 44.8 3.2 -9.69128
956 1 43.2 43.2 4.8 -11.6833
989 2 44.8 44.8 3.2 -9.70445
958 1 46.4 43.2 4.8 -11.6177
991 2 48 44.8 3.2 -9.82201
960 2 49.6 43.2 4.8 -9.8046
962 1 1.6 46.4 4.8 -11.6254
993 2 0 48 3.2 -9.79647
964 2 4.8 46.4 4.8 -9.74324
995 1 3.2 48 3.2 -11.7028
966 2 8 46.4 4.8 -9.78136
997 1 6.4 48 3.2 -11.7245
968 3 11.2 46.4 4.8 -11.1083
999 1 9.6 48 3.2 -11.7231
970 1 14.4 46.4 4.8 -11.6215
1001 1 12.8 48 3.2 -11.7117
972 2 17.6 46.4 4.8 -9.73961
1003 2 16 48 3.2 -9.71086
974 2 20.8 46.4 4.8 -9.67407
1005 1 19.2 48 3.2 -11.7586
976 2 24 46.4 4.8 -9.76427
1007 1 22.4 48 3.2 -11.7067
1009 2 25.6 48 3.2 -9.83059
978 2 27.2 46.4 4.8 -9.80674
1011 2 28.8 48 3.2 -9.70526
980 1 30.4 46.4 4.8 -11.674
1013 2 32 48 3.2 -9.68598
982 1 33.6 46.4 4.8 -11.6962
1015 2 35.2 48 3.2 -9.58272
984 1 36.8 46.4 4.8 -11.6971
1017 2 38.4 48 3.2 -9.61516
986 1 40 46.4 4.8 -11.6885
1019 3 41.6 48 3.2 -11.0835
988 1 43.2 46.4 4.8 -11.6702
1021 2 44.8 48 3.2 -9.78381
990 2 46.4 46.4 4.8 -9.74324
1023 2 48 48 3.2 -9.80162
992 2 49.6 46.4 4.8 -9.81375
994 3 1.6 49.6 4.8 -11.0343
996 2 4.8 49.6 4.8 -9.65946
998 2 8 49.6 4.8 -9.66436
1000 2 11.2 49.6 4.8 -9.81521
1002 2 14.4 49.6 4.8 -9.81386
1004 2 17.6 49.6 4.8 -9.8226
1006 2 20.8 49.6 4.8 -9.70556
1008 1 24 49.6 4.8 -11.6397
1010 1 27.2 49.6 4.8 -11.6432
1012 2 30.4 49.6 4.8 -9.68294
1014 1 33.6 49.6 4.8 -11.7477
1016 1 36.8 49.6 4.8 -11.6897
1018 1 40 49.6 4.8 -11.7811
1020 1 43.2 49.6 4.8 -11.7872
1022 2 46.4 49.6 4.8 -9.83036
1024 2 49.6 49.6 4.8 -9.78118
1025 1 0 0 6.4 -11.7097
1026 3 1.6 1.6 8 -11.1065
1027 1 3.2 0 6.4 -11.6584
1028 2 4.8 1.6 8 -9.73438
1029 2 6.4 0 6.4 -9.66167
1030 1 8 1.6 8 -11.6451
1031 2 9.6 0 6.4 -9.70965
1032 1 11.2 1.6 8 -11.6909
1033 2 12.8 0 6.4 -9.84303
1034 1 14.4 1.6 8 -11.7623
1035 2 16 0 6.4 -9.79161
1036 1 17.6 1.6 8 -11.6304
1037 2 19.2 0 6.4 -9.73308
1038 1 20.8 1.6 8 -11.6491
1039 3 22.4 0 6.4 -11.0371
1040 1 24 1.6 8 -11.7509
1041 2 25.6 0 6.4 -9.66004
1042 2 27.2 1.6 8 -9.75204
1043 2 28.8 0 6.4 -9.70313
1044 1 30.4 1.6 8 -11.6875
1045 3 32 0 6.4 -11.2679
1046 2 33.6 1.6 8 -9.75988
1047 2 35.2 0 6.4 -9.74686
1048 1 36.8 1.6 8 -11.7425
1049 3 38.4 0 6.4 -11.1241
1050 1 40 1.6 8 -11.7285
1051 3 41.6 0 6.4 -11.166
1052 1 43.2 1.6 8 -11.734
1053 3 44.8 0 6.4 -11.1137
1054 1 46.4 1.6 8 -11.6165
1055 1 48 0 6.4 -11.6071
1056 2 49.6 1.6 8 -9.74282
1057 1 0 3.2 6.4 -11.6732
1058 2 1.6 4.8 8 -9.76817
1059 1 3.2 3.2 6.4 -11.6986
1060 3 4.8 4.8 8 -11.2054
1061 1 6.4 3.2 6.4 -11.6462
1062 1 8 4.8 8 -11.6075
1063 2 9.6 3.2 6.4 -9.63371
1064 1 11.2 4.8 8 -11.5913
1065 2 12.8 3.2 6.4 -9.72699
1066 2 14.4 4.8 8 -9.77529
1067 2 16 3.2 6.4 -9.76034
1068 2 17.6 4.8 8 -9.80041
1069 2 19.2 3.2 6.4 -9.72032
1070 3 20.8 4.8 8 -11.2369
1071 2 22.4 3.2 6.4 -9.76935
1072 3 24 4.8 8 -11.2901
1073 2 25.6 3.2 6.4 -9.83329
1074 2 27.2 4.8 8 -9.83073
1075 2 28.8 3.2 6.4 -9.69443
1076 1 30.4 4.8 8 -11.4846
1077 2 32 3.2 6.4 -9.628
1078 2 33.6 4.8 8 -9.63284
1079 2 35.2 3.2 6.4 -9.73133
1080 2 36.8 4.8 8 -9.70296
1081 2 38.4 3.2 6.4 -9.75536
1082 2 40 4.8 8 -9.76099
1083 2 41.6 3.2 6.4 -9.76224
1084 2 43.2 4.8 8 -9.75599
1085 2 44.8 3.2 6.4 -9.73373
1086 2 46.4 4.8 8 -9.76887
1087 1 48 3.2 6.4 -11.6419
1088 2 49.6 4.8 8 -9.81317
1089 2 0 6.4 6.4 -9.70029
1090 1 1.6 8 8 -11.6694
1091 2 3.2 6.4 6.4 -9.77892
1092 2 4.8 8 8 -9.78176
1093 1 6.4 6.4 6.4 -11.6744
1094 2 8 8 8 -9.72403
1095 2 9.6 6.4 6.4 -9.66896
1096 1 11.2 8 8 -11.6417
1097 1 12.8 6.4 6.4 -11.5614
1098 2 14.4 8 8 -9.63824
1099 1 16 6.4 6.4 -11.6675
1100 2 17.6 8 8 -9.70936
1101 1 19.2 6.4 6.4 -11.5949
1102 1 20.8 8 8 -11.5242
1103 1 22.4 6.4 6.4 -11.5539