ITEM: TIMESTEP
0
ITEM: NUMBER OF ATOMS
8192
ITEM: BOX BOUNDS pp pp pp
0.0000000000000000e+00 5.1200000000000003e+01
0.0000000000000000e+00 5.1200000000000003e+01
0.0000000000000000e+00 5.1200000000000003e+01
ITEM: ATOMS id type x y z c_eng
1 3 0 0 0 -11.1178
2 1 1.6 1.6 1.6 -11.7154
3 3 3.2 0 0 -11.1818
4 1 4.8 1.6 1.6 -11.7239
5 3 6.4 0 0 -11.2054
6 1 8 1.6 1.6 -11.7404
7 3 9.6 0 0 -10.9502
8 1 11.2 1.6 1.6 -11.7091
9 3 12.8 0 0 -11.0058
10 1 14.4 1.6 1.6 -11.5073
11 1 16 0 0 -11.5802
12 3 17.6 1.6 1.6 -10.9949
13 1 19.2 0 0 -11.6745
14 3 20.8 1.6 1.6 -11.1647
15 1 22.4 0 0 -11.615
16 3 24 1.6 1.6 -11.1161
17 1 25.6 0 0 -11.4047
18 1 27.2 1.6 1.6 -11.3471
19 2 28.8 0 0 -9.59256
20 1 30.4 1.6 1.6 -11.3722
21 2 32 0 0 -9.68025
22 1 33.6 1.6 1.6 -11.4205
23 1 35.2 0 0 -11.4056
24 1 36.8 1.6 1.6 -11.2169
25 1 38.4 0 0 -11.1776
26 3 40 1.6 1.6 -10.696
27 1 41.6 0 0 -11.4007
28 1 43.2 1.6 1.6 -11.3776
29 2 44.8 0 0 -9.47957
30 3 46.4 1.6 1.6 -10.8827
31 1 48 0 0 -11.3262
32 1 49.6 1.6 1.6 -11.6405
33 3 0 3.2 0 -11.1607
34 3 1.6 4.8 1.6 -11.0442
35 1 3.2 3.2 0 -11.5962
36 3 4.8 4.8 1.6 -10.9329
37 2 6.4 3.2 0 -9.76472
38 3 8 4.8 1.6 -11.133
39 3 9.6 3.2 0 -11.0412
40 1 11.2 4.8 1.6 -11.6744
41 3 12.8 3.2 0 -10.9954
42 1 14.4 4.8 1.6 -11.5147
43 1 16 3.2 0 -11.4428
44 2 17.6 4.8 1.6 -9.47359
45 1 19.2 3.2 0 -11.7511
46 2 20.8 4.8 1.6 -9.61405
47 1 22.4 3.2 0 -11.8122
48 3 24 4.8 1.6 -11.2054
49 1 25.6 3.2 0 -11.7093
50 3 27.2 4.8 1.6 -10.9933
51 1 28.8 3.2 0 -11.5438
52 1 30.4 4.8 1.6 -11.2598
53 1 32 3.2 0 -11.5298
54 2 33.6 4.8 1.6 -9.42479
55 1 35.2 3.2 0 -11.3109
56 1 36.8 4.8 1.6 -11.3598
57 1 38.4 3.2 0 -11.3841
58 2 40 4.8 1.6 -9.67535
59 1 41.6 3.2 0 -11.5716
60 1 43.2 4.8 1.6 -11.4334
61 1 44.8 3.2 0 -11.548
62 1 46.4 4.8 1.6 -11.5561
63 2 48 3.2 0 -9.54042
64 1 49.6 4.8 1.6 -11.6752
65 2 0 6.4 0 -9.60086
66 1 1.6 8 1.6 -11.4781
67 1 3.2 6.4 0 -11.2947
68 1 4.8 8 1.6 -11.2638
69 1 6.4 6.4 0 -11.3774
70 3 8 8 1.6 -10.8788
71 2 9.6 6.4 0 -9.63733
72 1 11.2 8 1.6 -11.7407
73 3 12.8 6.4 0 -11.1276
74 2 14.4 8 1.6 -9.65325
75 1 16 6.4 0 -11.3391
76 1 17.6 8 1.6 -11.2726
77 1 19.2 6.4 0 -11.3844
78 1 20.8 8 1.6 -11.2141
79 1 22.4 6.4 0 -11.6753
80 3 24 8 1.6 -11.0821
81 1 25.6 6.4 0 -11.8124
82 3 27.2 8 1.6 -10.9486
83 1 28.8 6.4 0 -11.569
84 1 30.4 8 1.6 -11.2996
85 1 32 6.4 0 -11.5305
86 1 33.6 8 1.6 -11.4084
87 1 35.2 6.4 0 -11.4965
88 1 36.8 8 1.6 -11.3105
89 2 38.4 6.4 0 -9.59987
90 1 40 8 1.6 -11.5616
91 1 41.6 6.4 0 -11.6298
92 1 43.2 8 1.6 -11.5124
93 2 44.8 6.4 0 -9.5297
94 1 46.4 8 1.6 -11.5144
95 1 48 6.4 0 -11.3735
96 1 49.6 8 1.6 -11.5807
97 2 0 9.6 0 -9.48297
98 3 1.6 11.2 1.6 -11.0262
99 1 3.2 9.6 0 -11.2187
100 3 4.8 11.2 1.6 -10.921
101 1 6.4 9.6 0 -11.3393
102 1 8 11.2 1.6 -11.6386
103 2 9.6 9.6 0 -9.59977
104 1 11.2 11.2 1.6 -11.5288
105 2 12.8 9.6 0 -9.55138
106 1 14.4 11.2 1.6 -11.5308
107 1 16 9.6 0 -11.2295
108 2 17.6 11.2 1.6 -9.54465
109 1 19.2 9.6 0 -11.3029
110 3 20.8 11.2 1.6 -10.9496
111 1 22.4 9.6 0 -11.6882
112 2 24 11.2 1.6 -9.78547
113 1 25.6 9.6 0 -11.7237
114 3 27.2 11.2 1.6 -10.9921
115 1 28.8 9.6 0 -11.5635
116 1 30.4 11.2 1.6 -11.5601
117 3 32 9.6 0 -10.9846
118 1 33.6 11.2 1.6 -11.3774
119 1 35.2 9.6 0 -11.4278
120 1 36.8 11.2 1.6 -11.1504
121 1 38.4 9.6 0 -11.5476
122 3 40 11.2 1.6 -10.9328
123 1 41.6 9.6 0 -11.5727
124 1 43.2 11.2 1.6 -11.564
125 1 44.8 9.6 0 -11.3573
126 1 46.4 11.2 1.6 -11.4332
127 2 48 9.6 0 -9.39758
128 1 49.6 11.2 1.6 -11.5761
129 1 0 12.8 0 -11.4251
130 3 1.6 14.4 1.6 -11.1733
131 1 3.2 12.8 0 -11.5776
132 2 4.8 14.4 1.6 -9.82302
133 3 6.4 12.8 0 -10.9695
134 1 8 14.4 1.6 -11.4817
135 1 9.6 12.8 0 -11.3513
136 1 11.2 14.4 1.6 -11.3744
137 1 12.8 12.8 0 -11.3166
138 1 14.4 14.4 1.6 -11.3353
139 1 16 12.8 0 -11.3609
140 1 17.6 14.4 1.6 -11.2842
141 1 19.2 12.8 0 -11.4787
142 1 20.8 14.4 1.6 -11.3612
143 2 22.4 12.8 0 -9.7555
144 1 24 14.4 1.6 -11.4903
145 2 25.6 12.8 0 -9.6669
146 1 27.2 14.4 1.6 -11.2332
147 2 28.8 12.8 0 -9.51055
148 1 30.4 14.4 1.6 -11.4473
149 3 32 12.8 0 -11.185
150 1 33.6 14.4 1.6 -11.485
151 1 35.2 12.8 0 -11.43
152 2 36.8 14.4 1.6 -9.27017
153 1 38.4 12.8 0 -11.6185
154 3 40 14.4 1.6 -11.2248
155 1 41.6 12.8 0 -11.7591
156 3 43.2 14.4 1.6 -11.0539
157 1 44.8 12.8 0 -11.4125
158 1 46.4 14.4 1.6 -11.3492
159 2 48 12.8 0 -9.13515
160 1 49.6 14.4 1.6 -11.3885
161 1 0 16 0 -11.371
162 1 1.6 17.6 1.6 -11.5357
163 3 3.2 16 0 -11.0102
164 1 4.8 17.6 1.6 -11.6509
165 2 6.4 16 0 -9.65354
166 1 8 17.6 1.6 -11.5487
167 1 9.6 16 0 -11.3005
168 3 11.2 17.6 1.6 -10.9472
169 1 12.8 16 0 -11.467
170 3 14.4 17.6 1.6 -10.8502
171 1 16 16 0 -11.3821
172 1 17.6 17.6 1.6 -11.3299
173 1 19.2 16 0 -11.2965
174 1 20.8 17.6 1.6 -11.4673
175 2 22.4 16 0 -9.61351
176 3 24 17.6 1.6 -10.8982
177 1 25.6 16 0 -11.4309
178 2 27.2 17.6 1.6 -9.3671
179 1 28.8 16 0 -11.3165
180 1 30.4 17.6 1.6 -11.5103
181 3 32 16 0 -11.0462
182 1 33.6 17.6 1.6 -11.4988
183 1 35.2 16 0 -11.2959
184 1 36.8 17.6 1.6 -11.4318
185 1 38.4 16 0 -11.4489
186 2 40 17.6 1.6 -9.69281
187 1 41.6 16 0 -11.8046
188 1 43.2 17.6 1.6 -11.4931
189 1 44.8 16 0 -11.3314
190 1 46.4 17.6 1.6 -11.152
191 1 48 16 0 -11.1635
192 1 49.6 17.6 1.6 -11.356
193 3 0 19.2 0 -10.7926
194 1 1.6 20.8 1.6 -11.357
195 2 3.2 19.2 0 -9.57776
196 1 4.8 20.8 1.6 -11.5384
197 3 6.4 19.2 0 -11.1665
198 1 8 20.8 1.6 -11.4746
199 3 9.6 19.2 0 -10.8974
200 2 11.2 20.8 1.6 -9.52081
201 1 12.8 19.2 0 -11.6827
202 2 14.4 20.8 1.6 -9.51412
203 1 16 19.2 0 -11.4918
204 1 17.6 20.8 1.6 -11.5313
205 3 19.2 19.2 0 -10.8595
206 1 20.8 20.8 1.6 -11.5805
207 1 22.4 19.2 0 -11.449
208 3 24 20.8 1.6 -10.9078
209 1 25.6 19.2 0 -11.4415
210 2 27.2 20.8 1.6 -9.45512
211 1 28.8 19.2 0 -11.3908
212 1 30.4 20.8 1.6 -11.3708
213 3 32 19.2 0 -10.9888
214 1 33.6 20.8 1.6 -11.5411
215 3 35.2 19.2 0 -10.849
216 1 36.8 20.8 1.6 -11.3497
217 1 38.4 19.2 0 -11.5438
218 1 40 20.8 1.6 -11.4043
219 3 41.6 19.2 0 -11.1794
220 2 43.2 20.8 1.6 -9.63637
221 1 44.8 19.2 0 -11.4318
222 2 46.4 20.8 1.6 -9.53154
223 2 48 19.2 0 -9.55232
224 1 49.6 20.8 1.6 -11.6038
225 1 0 22.4 0 -11.3083
226 1 1.6 24 1.6 -11.5302
227 1 3.2 22.4 0 -11.2336
228 1 4.8 24 1.6 -11.4505
229 1 6.4 22.4 0 -11.2768
230 1 8 24 1.6 -11.2488
231 1 9.6 22.4 0 -11.1391
232 1 11.2 24 1.6 -11.1774
233 1 12.8 22.4 0 -11.3745
234 1 14.4 24 1.6 -11.2856
235 1 16 22.4 0 -11.4967
236 3 17.6 24 1.6 -10.9762
237 3 19.2 22.4 0 -11.0882
238 1 20.8 24 1.6 -11.5755
239 2 22.4 22.4 0 -9.5761
240 3 24 24 1.6 -10.852
241 1 25.6 22.4 0 -11.4634
242 1 27.2 24 1.6 -11.4883
243 1 28.8 22.4 0 -11.2895
244 1 30.4 24 1.6 -11.4506
245 2 32 22.4 0 -9.45312
246 2 33.6 24 1.6 -9.62169
247 2 35.2 22.4 0 -9.65919
248 1 36.8 24 1.6 -11.418
249 1 38.4 22.4 0 -11.3481
250 1 40 24 1.6 -11.322
251 1 41.6 22.4 0 -11.6077
252 2 43.2 24 1.6 -9.62637
253 1 44.8 22.4 0 -11.5018
254 1 46.4 24 1.6 -11.4973
255 2 48 22.4 0 -9.44533
256 1 49.6 24 1.6 -11.6011
257 2 0 25.6 0 -9.56906
259 2 3.2 25.6 0 -9.41322
261 1 6.4 25.6 0 -11.2249
263 1 9.6 25.6 0 -11.3596
265 1 12.8 25.6 0 -11.3808
267 1 16 25.6 0 -11.4678
269 1 19.2 25.6 0 -11.503
271 1 22.4 25.6 0 -11.4439
273 1 25.6 25.6 0 -11.471
275 2 28.8 25.6 0 -9.64016
277 2 32 25.6 0 -9.63498
279 3 35.2 25.6 0 -11.1728
281 1 38.4 25.6 0 -11.5243
283 2 41.6 25.6 0 -9.73361
285 2 44.8 25.6 0 -9.53645
287 1 48 25.6 0 -11.4562
258 1 1.6 27.2 1.6 -11.6061
289 1 0 28.8 0 -11.4859
260 1 4.8 27.2 1.6 -11.4202
291 1 3.2 28.8 0 -11.4709
262 1 8 27.2 1.6 -11.4173
293 1 6.4 28.8 0 -11.369
264 2 11.2 27.2 1.6 -9.57271
295 2 9.6 28.8 0 -9.53222
266 2 14.4 27.2 1.6 -9.52884
297 1 12.8 28.8 0 -11.4608
268 3 17.6 27.2 1.6 -11.0849
299 1 16 28.8 0 -11.4745
270 3 20.8 27.2 1.6 -11.0443
301 1 19.2 28.8 0 -11.5689
272 2 24 27.2 1.6 -9.40472
303 1 22.4 28.8 0 -11.4183
305 1 25.6 28.8 0 -11.3631
274 2 27.2 27.2 1.6 -9.6692
307 3 28.8 28.8 0 -10.9991
276 1 30.4 27.2 1.6 -11.4795
309 1 32 28.8 0 -11.5279
278 1 33.6 27.2 1.6 -11.5091
311 1 35.2 28.8 0 -11.4285
280 1 36.8 27.2 1.6 -11.3363
313 1 38.4 28.8 0 -11.3265
282 1 40 27.2 1.6 -11.3074
315 1 41.6 28.8 0 -11.3889
284 1 43.2 27.2 1.6 -11.4008
317 1 44.8 28.8 0 -11.2761
286 1 46.4 27.2 1.6 -11.4293
319 1 48 28.8 0 -11.2
288 3 49.6 27.2 1.6 -11.0332
290 3 1.6 30.4 1.6 -10.9987
321 1 0 32 0 -11.4052
292 3 4.8 30.4 1.6 -10.9886
323 1 3.2 32 0 -11.6005
294 1 8 30.4 1.6 -11.3769
325 2 6.4 32 0 -9.47624
296 1 11.2 30.4 1.6 -11.4908
327 1 9.6 32 0 -11.1964
298 1 14.4 30.4 1.6 -11.3449
329 3 12.8 32 0 -10.5267
300 3 17.6 30.4 1.6 -10.8105
331 1 16 32 0 -11.2743
302 2 20.8 30.4 1.6 -9.60134
333 1 19.2 32 0 -11.5349
304 1 24 30.4 1.6 -11.1937
335 1 22.4 32 0 -11.3471
337 1 25.6 32 0 -11.2214
306 2 27.2 30.4 1.6 -9.46361
339 2 28.8 32 0 -9.71811
308 3 30.4 30.4 1.6 -11.0787
341 2 32 32 0 -9.65536
310 2 33.6 30.4 1.6 -9.60896
343 2 35.2 32 0 -9.67914
312 1 36.8 30.4 1.6 -11.3247
345 3 38.4 32 0 -11.0717
314 1 40 30.4 1.6 -11.3573
347 3 41.6 32 0 -11.1589
316 1 43.2 30.4 1.6 -11.4078
349 3 44.8 32 0 -11.0328
318 1 46.4 30.4 1.6 -11.4304
351 1 48 32 0 -11.3343
320 1 49.6 30.4 1.6 -11.3709
322 2 1.6 33.6 1.6 -9.38862
353 1 0 35.2 0 -11.3773
324 2 4.8 33.6 1.6 -9.569
355 1 3.2 35.2 0 -11.3401
326 1 8 33.6 1.6 -11.1506
357 1 6.4 35.2 0 -11.3828
328 1 11.2 33.6 1.6 -11.4481
359 1 9.6 35.2 0 -11.1832
330 1 14.4 33.6 1.6 -11.5393
361 1 12.8 35.2 0 -11.5426
332 3 17.6 33.6 1.6 -10.8066
363 1 16 35.2 0 -11.4176
334 3 20.8 33.6 1.6 -10.9999
365 1 19.2 35.2 0 -11.5431
336 1 24 33.6 1.6 -11.2836
367 1 22.4 35.2 0 -11.614
369 3 25.6 35.2 0 -11.0437
338 1 27.2 33.6 1.6 -11.454
371 3 28.8 35.2 0 -10.8916
340 1 30.4 33.6 1.6 -11.4213
373 1 32 35.2 0 -11.4075
342 2 33.6 33.6 1.6 -9.69375
375 1 35.2 35.2 0 -11.5263
344 3 36.8 33.6 1.6 -11.2828
377 2 38.4 35.2 0 -9.61107
346 3 40 33.6 1.6 -11.1885
379 1 41.6 35.2 0 -11.5073
348 1 43.2 33.6 1.6 -11.5921
381 2 44.8 35.2 0 -9.60005
350 1 46.4 33.6 1.6 -11.5234
383 3 48 35.2 0 -10.9666
352 1 49.6 33.6 1.6 -11.2768
354 1 1.6 36.8 1.6 -11.3875
385 3 0 38.4 0 -10.7968
356 3 4.8 36.8 1.6 -11.0383
387 1 3.2 38.4 0 -11.4098
358 1 8 36.8 1.6 -11.3776
389 3 6.4 38.4 0 -11.1865
360 2 11.2 36.8 1.6 -9.71661
391 3 9.6 38.4 0 -11.0755
362 3 14.4 36.8 1.6 -11.052
393 1 12.8 38.4 0 -11.4824
364 1 17.6 36.8 1.6 -11.356
395 1 16 38.4 0 -11.2792
366 3 20.8 36.8 1.6 -10.9517
397 1 19.2 38.4 0 -11.4633
368 2 24 36.8 1.6 -9.65434
399 1 22.4 38.4 0 -11.6593
401 2 25.6 38.4 0 -9.70534
370 3 27.2 36.8 1.6 -11.0969
403 1 28.8 38.4 0 -11.6312
372 1 30.4 36.8 1.6 -11.4133
405 3 32 38.4 0 -10.8797
374 2 33.6 36.8 1.6 -9.60482
407 1 35.2 38.4 0 -11.4931
376 3 36.8 36.8 1.6 -10.9836
409 1 38.4 38.4 0 -11.4591
378 3 40 36.8 1.6 -11.0803
411 1 41.6 38.4 0 -11.3283
380 2 43.2 36.8 1.6 -9.57723
413 1 44.8 38.4 0 -11.3943
382 2 46.4 36.8 1.6 -9.55215
415 1 48 38.4 0 -11.3484
384 1 49.6 36.8 1.6 -11.5654
386 1 1.6 40 1.6 -11.4449
417 1 0 41.6 0 -11.2598
388 2 4.8 40 1.6 -9.72085
419 1 3.2 41.6 0 -11.2936
390 1 8 40 1.6 -11.6409
421 3 6.4 41.6 0 -11.2942
392 1 11.2 40 1.6 -11.4329
423 3 9.6 41.6 0 -10.8921
394 1 14.4 40 1.6 -11.3505
425 1 12.8 41.6 0 -11.3471
396 1 17.6 40 1.6 -11.3261
427 1 16 41.6 0 -11.4497
398 3 20.8 40 1.6 -11.0831
429 2 19.2 41.6 0 -9.61152
400 2 24 40 1.6 -9.69316
431 1 22.4 41.6 0 -11.6393
433 1 25.6 41.6 0 -11.6801
402 3 27.2 40 1.6 -11.1562
435 3 28.8 41.6 0 -10.9619
404 1 30.4 40 1.6 -11.5181
437 1 32 41.6 0 -11.4518
406 1 33.6 40 1.6 -11.5562
439 3 35.2 41.6 0 -11.1081
408 1 36.8 40 1.6 -11.537
441 2 38.4 41.6 0 -9.56472
410 2 40 40 1.6 -9.54156
443 1 41.6 41.6 0 -11.4386
412 3 43.2 40 1.6 -10.9709
445 3 44.8 41.6 0 -10.9991
414 1 46.4 40 1.6 -11.5282
447 1 48 41.6 0 -11.1818
416 1 49.6 40 1.6 -11.4343
418 1 1.6 43.2 1.6 -11.5729
449 3 0 44.8 0 -10.8089
420 2 4.8 43.2 1.6 -9.72827
451 1 3.2 44.8 0 -11.3106
422 2 8 43.2 1.6 -9.74065
453 2 6.4 44.8 0 -9.61042
424 2 11.2 43.2 1.6 -9.65549
455 1 9.6 44.8 0 -11.3128
426 3 14.4 43.2 1.6 -11.1372
457 1 12.8 44.8 0 -11.5093
428 2 17.6 43.2 1.6 -9.68745
459 1 16 44.8 0 -11.6581
430 3 20.8 43.2 1.6 -11.2419
461 1 19.2 44.8 0 -11.555
432 3 24 43.2 1.6 -11.126
463 1 22.4 44.8 0 -11.6814
465 1 25.6 44.8 0 -11.5875
434 2 27.2 43.2 1.6 -9.63358
467 2 28.8 44.8 0 -9.49456
436 1 30.4 43.2 1.6 -11.3643
469 1 32 44.8 0 -11.1153
438 1 33.6 43.2 1.6 -11.5051
471 3 35.2 44.8 0 -10.9502
440 1 36.8 43.2 1.6 -11.7223
473 2 38.4 44.8 0 -9.55081
442 1 40 43.2 1.6 -11.5535
475 2 41.6 44.8 0 -9.55056
444 1 43.2 43.2 1.6 -11.632
477 3 44.8 44.8 0 -11.04
446 1 46.4 43.2 1.6 -11.6747
479 2 48 44.8 0 -9.51321
448 1 49.6 43.2 1.6 -11.5673
450 1 1.6 46.4 1.6 -11.5245
481 1 0 48 0 -11.4031
452 1 4.8 46.4 1.6 -11.5222
483 1 3.2 48 0 -11.271
454 1 8 46.4 1.6 -11.4719
485 3 6.4 48 0 -10.908
456 2 11.2 46.4 1.6 -9.38049
487 1 9.6 48 0 -11.351
458 1 14.4 46.4 1.6 -11.4057
489 1 12.8 48 0 -11.3495
460 2 17.6 46.4 1.6 -9.66306
491 1 16 48 0 -11.5613
462 3 20.8 46.4 1.6 -10.9446
493 1 19.2 48 0 -11.5641
464 3 24 46.4 1.6 -10.9464
495 1 22.4 48 0 -11.4963
497 1 25.6 48 0 -11.3271
466 1 27.2 46.4 1.6 -11.4452
499 2 28.8 48 0 -9.53524
468 1 30.4 46.4 1.6 -11.4291
501 1 32 48 0 -11.3866
470 1 33.6 46.4 1.6 -11.5379
503 2 35.2 48 0 -9.57744
472 1 36.8 46.4 1.6 -11.5444
505 1 38.4 48 0 -11.0779
474 1 40 46.4 1.6 -11.4729
507 2 41.6 48 0 -9.35027
476 1 43.2 46.4 1.6 -11.7187
509 3 44.8 48 0 -11.0865
478 1 46.4 46.4 1.6 -11.7811
511 2 48 48 0 -9.51334
480 1 49.6 46.4 1.6 -11.6824
482 1 1.6 49.6 1.6 -11.6522
484 1 4.8 49.6 1.6 -11.7194
486 1 8 49.6 1.6 -11.6965
488 1 11.2 49.6 1.6 -11.5656
490 1 14.4 49.6 1.6 -11.3191
492 2 17.6 49.6 1.6 -9.48825
494 1 20.8 49.6 1.6 -11.3716
496 2 24 49.6 1.6 -9.49411
498 1 27.2 49.6 1.6 -11.4396
500 1 30.4 49.6 1.6 -11.6622
502 1 33.6 49.6 1.6 -11.6594
504 1 36.8 49.6 1.6 -11.3361
506 1 40 49.6 1.6 -11.2825
508 1 43.2 49.6 1.6 -11.4152
510 1 46.4 49.6 1.6 -11.5509
512 1 49.6 49.6 1.6 -11.4725
513 2 0 0 3.2 -9.64792
514 1 1.6 1.6 4.8 -11.5719
515 3 3.2 0 3.2 -11.0833
516 1 4.8 1.6 4.8 -11.6294
517 3 6.4 0 3.2 -11.1665
518 1 8 1.6 4.8 -11.5973
519 2 9.6 0 3.2 -9.64779
520 1 11.2 1.6 4.8 -11.5981
521 3 12.8 0 3.2 -10.9499
522 1 14.4 1.6 4.8 -11.5508
523 1 16 0 3.2 -11.4593
524 2 17.6 1.6 4.8 -9.72664
525 1 19.2 0 3.2 -11.6226
526 3 20.8 1.6 4.8 -11.2252
527 2 22.4 0 3.2 -9.63198
528 2 24 1.6 4.8 -9.57811
529 1 25.6 0 3.2 -11.5229
530 1 27.2 1.6 4.8 -11.4482
531 2 28.8 0 3.2 -9.6203
532 1 30.4 1.6 4.8 -11.614
533 3 32 0 3.2 -11.0405
534 1 33.6 1.6 4.8 -11.6199
535 3 35.2 0 3.2 -10.9464
536 1 36.8 1.6 4.8 -11.4535
537 2 38.4 0 3.2 -9.46301
538 1 40 1.6 4.8 -11.3946
539 1 41.6 0 3.2 -11.3327
540 3 43.2 1.6 4.8 -10.7977
541 1 44.8 0 3.2 -11.4612
542 3 46.4 1.6 4.8 -10.843
543 1 48 0 3.2 -11.4006
544 1 49.6 1.6 4.8 -11.5971
545 3 0 3.2 3.2 -11.158
546 1 1.6 4.8 4.8 -11.3827
547 1 3.2 3.2 3.2 -11.431
548 1 4.8 4.8 4.8 -11.4029
549 3 6.4 3.2 3.2 -11.0703
550 1 8 4.8 4.8 -11.3385
551 1 9.6 3.2 3.2 -11.3633
552 1 11.2 4.8 4.8 -11.3931
553 3 12.8 3.2 3.2 -11.0065
554 1 14.4 4.8 4.8 -11.6144
555 1 16 3.2 3.2 -11.444
556 3 17.6 4.8 4.8 -11.0354
557 1 19.2 3.2 3.2 -11.7806
558 3 20.8 4.8 4.8 -11.0322
559 1 22.4 3.2 3.2 -11.8118
560 3 24 4.8 4.8 -11.0852
561 1 25.6 3.2 3.2 -11.5965
562 3 27.2 4.8 4.8 -11.0358
563 1 28.8 3.2 3.2 -11.4103
564 3 30.4 4.8 4.8 -11.0603
565 1 32 3.2 3.2 -11.375
566 2 33.6 4.8 4.8 -9.74645
567 1 35.2 3.2 3.2 -11.3293
568 1 36.8 4.8 4.8 -11.4572
569 1 38.4 3.2 3.2 -11.3575
570 2 40 4.8 4.8 -9.605
571 1 41.6 3.2 3.2 -11.518
572 3 43.2 4.8 4.8 -11.1462
573 1 44.8 3.2 3.2 -11.5601
574 1 46.4 4.8 4.8 -11.5305
575 3 48 3.2 3.2 -11.0276
576 1 49.6 4.8 4.8 -11.4525
577 3 0 6.4 3.2 -11.033
578 1 1.6 8 4.8 -11.483
579 1 3.2 6.4 3.2 -11.3501
580 2 4.8 8 4.8 -9.32132
581 1 6.4 6.4 3.2 -11.5243
582 1 8 8 4.8 -11.452
583 1 9.6 6.4 3.2 -11.3845
584 1 11.2 8 4.8 -11.5019
585 3 12.8 6.4 3.2 -11.155
586 2 14.4 8 4.8 -9.73697
587 1 16 6.4 3.2 -11.5679
588 2 17.6 8 4.8 -9.68557
589 1 19.2 6.4 3.2 -11.4167
590 1 20.8 8 4.8 -11.3433
591 1 22.4 6.4 3.2 -11.5981
592 3 24 8 4.8 -10.9579
593 1 25.6 6.4 3.2 -11.7447
594 1 27.2 8 4.8 -11.4531
595 1 28.8 6.4 3.2 -11.573
596 3 30.4 8 4.8 -11.0757
597 1 32 6.4 3.2 -11.517
598 3 33.6 8 4.8 -11.0837
599 3 35.2 6.4 3.2 -10.8894
600 1 36.8 8 4.8 -11.5795
601 3 38.4 6.4 3.2 -11.1063
602 2 40 8 4.8 -9.63235
603 2 41.6 6.4 3.2 -9.73674
604 1 43.2 8 4.8 -11.6386
605 3 44.8 6.4 3.2 -11.121
606 1 46.4 8 4.8 -11.6577
607 2 48 6.4 3.2 -9.52819
608 1 49.6 8 4.8 -11.5649
609 3 0 9.6 3.2 -11.16
610 1 1.6 11.2 4.8 -11.5828
611 1 3.2 9.6 3.2 -11.4131
612 1 4.8 11.2 4.8 -11.4832
613 1 6.4 9.6 3.2 -11.5325
614 1 8 11.2 4.8 -11.5796
615 3 9.6 9.6 3.2 -10.9468
616 1 11.2 11.2 4.8 -11.5093
617 3 12.8 9.6 3.2 -11.1861
618 1 14.4 11.2 4.8 -11.5421
619 3 16 9.6 3.2 -11.1626
620 3 17.6 11.2 4.8 -11.3305
621 1 19.2 9.6 3.2 -11.5431
622 3 20.8 11.2 4.8 -11.1881
623 1 22.4 9.6 3.2 -11.603
624 3 24 11.2 4.8 -11.1235
625 1 25.6 9.6 3.2 -11.7143
626 3 27.2 11.2 4.8 -10.9543
627 1 28.8 9.6 3.2 -11.5396
628 3 30.4 11.2 4.8 -11.0442
629 1 32 9.6 3.2 -11.5245
630 2 33.6 11.2 4.8 -9.59924
631 1 35.2 9.6 3.2 -11.2519
632 1 36.8 11.2 4.8 -11.322
633 1 38.4 9.6 3.2 -11.3693
634 1 40 11.2 4.8 -11.4838
635 2 41.6 9.6 3.2 -9.62073
636 1 43.2 11.2 4.8 -11.6402
637 3 44.8 9.6 3.2 -10.9985
638 1 46.4 11.2 4.8 -11.721
639 2 48 9.6 3.2 -9.66325
640 2 49.6 11.2 4.8 -9.70463
641 2 0 12.8 3.2 -9.74908
642 1 1.6 14.4 4.8 -11.6269
643 1 3.2 12.8 3.2 -11.5223
644 1 4.8 14.4 4.8 -11.5187
645 3 6.4 12.8 3.2 -11.1546
646 1 8 14.4 4.8 -11.5287
647 3 9.6 12.8 3.2 -11.0354
648 3 11.2 14.4 4.8 -11.0259
649 2 12.8 12.8 3.2 -9.57812
650 1 14.4 14.4 4.8 -11.5025
651 3 16 12.8 3.2 -11.0817
652 3 17.6 14.4 4.8 -10.9611
653 1 19.2 12.8 3.2 -11.567
654 1 20.8 14.4 4.8 -11.4777
655 1 22.4 12.8 3.2 -11.5655
656 1 24 14.4 4.8 -11.5152
657 1 25.6 12.8 3.2 -11.4593
658 1 27.2 14.4 4.8 -11.3067
659 1 28.8 12.8 3.2 -11.4097
660 1 30.4 14.4 4.8 -11.4349
661 2 32 12.8 3.2 -9.54125
662 1 33.6 14.4 4.8 -11.3906
663 1 35.2 12.8 3.2 -11.2467
664 2 36.8 14.4 4.8 -9.36197
665 1 38.4 12.8 3.2 -11.4045
666 1 40 14.4 4.8 -11.4775
667 3 41.6 12.8 3.2 -11.2105
668 1 43.2 14.4 4.8 -11.7375
669 3 44.8 12.8 3.2 -10.9879
670 1 46.4 14.4 4.8 -11.6179
671 1 48 12.8 3.2 -11.426
672 1 49.6 14.4 4.8 -11.715
673 3 0 16 3.2 -10.9859
674 1 1.6 17.6 4.8 -11.4957
675 2 3.2 16 3.2 -9.70041
676 1 4.8 17.6 4.8 -11.3502
677 2 6.4 16 3.2 -9.55626
678 1 8 17.6 4.8 -11.2316
679 1 9.6 16 3.2 -11.4505
680 3 11.2 17.6 4.8 -11.0451
681 1 12.8 16 3.2 -11.553
682 2 14.4 17.6 4.8 -9.58765
683 1 16 16 3.2 -11.4384
684 2 17.6 17.6 4.8 -9.60529
685 1 19.2 16 3.2 -11.3227
686 1 20.8 17.6 4.8 -11.5583
687 3 22.4 16 3.2 -10.7448
688 1 24 17.6 4.8 -11.6229
689 1 25.6 16 3.2 -11.3134
690 1 27.2 17.6 4.8 -11.4899
691 1 28.8 16 3.2 -11.2213
692 1 30.4 17.6 4.8 -11.5566
693 3 32 16 3.2 -10.81
694 1 33.6 17.6 4.8 -11.5892
695 1 35.2 16 3.2 -11.3864
696 3 36.8 17.6 4.8 -10.9145
697 1 38.4 16 3.2 -11.5338
698 1 40 17.6 4.8 -11.6823
699 2 41.6 16 3.2 -9.73367
700 1 43.2 17.6 4.8 -11.6016
701 1 44.8 16 3.2 -11.3446
702 1 46.4 17.6 4.8 -11.4047
703 2 48 16 3.2 -9.31205
704 1 49.6 17.6 4.8 -11.5584
705 1 0 19.2 3.2 -11.3742
706 1 1.6 20.8 4.8 -11.3797
707 1 3.2 19.2 3.2 -11.181
708 1 4.8 20.8 4.8 -11.3316
709 3 6.4 19.2 3.2 -10.8064
710 1 8 20.8 4.8 -11.3461
711 1 9.6 19.2 3.2 -11.5441
712 3 11.2 20.8 4.8 -11.0403
713 1 12.8 19.2 3.2 -11.7524
714 3 14.4 20.8 4.8 -11.1234
715 1 16 19.2 3.2 -11.564
716 1 17.6 20.8 4.8 -11.5844
717 3 19.2 19.2 3.2 -10.9548
718 1 20.8 20.8 4.8 -11.5022
719 1 22.4 19.2 3.2 -11.4489
720 1 24 20.8 4.8 -11.4247
721 1 25.6 19.2 3.2 -11.4924
722 1 27.2 20.8 4.8 -11.4509
723 2 28.8 19.2 3.2 -9.41093
724 1 30.4 20.8 4.8 -11.4455
725 1 32 19.2 3.2 -11.4051
726 2 33.6 20.8 4.8 -9.62091
727 2 35.2 19.2 3.2 -9.57976
728 1 36.8 20.8 4.8 -11.5195
729 2 38.4 19.2 3.2 -9.60721
730 1 40 20.8 4.8 -11.5372
731 3 41.6 19.2 3.2 -11.1526
732 2 43.2 20.8 4.8 -9.55527
733 1 44.8 19.2 3.2 -11.3869
734 2 46.4 20.8 4.8 -9.61778
735 1 48 19.2 3.2 -11.37
736 2 49.6 20.8 4.8 -9.7098
737 3 0 22.4 3.2 -10.9876
738 1 1.6 24 4.8 -11.5795
739 2 3.2 22.4 3.2 -9.44897
740 1 4.8 24 4.8 -11.5016
741 3 6.4 22.4 3.2 -10.8116
742 1 8 24 4.8 -11.3156
743 1 9.6 22.4 3.2 -11.3871
744 2 11.2 24 4.8 -9.49741
745 1 12.8 22.4 3.2 -11.5313
746 3 14.4 24 4.8 -10.9584
747 1 16 22.4 3.2 -11.5668
748 3 17.6 24 4.8 -11.1152
749 3 19.2 22.4 3.2 -11.1029
750 3 20.8 24 4.8 -10.9485
751 1 22.4 22.4 3.2 -11.5123
752 2 24 24 4.8 -9.54122
753 1 25.6 22.4 3.2 -11.4657
754 1 27.2 24 4.8 -11.5525
755 2 28.8 22.4 3.2 -9.38143
756 1 30.4 24 4.8 -11.4207
757 1 32 22.4 3.2 -11.3632
758 2 33.6 24 4.8 -9.6941
759 1 35.2 22.4 3.2 -11.3771
760 1 36.8 24 4.8 -11.4435
761 1 38.4 22.4 3.2 -11.1157
762 1 40 24 4.8 -11.491
763 1 41.6 22.4 3.2 -11.3481
764 1 43.2 24 4.8 -11.3777
765 1 44.8 22.4 3.2 -11.4936
766 1 46.4 24 4.8 -11.4356
767 3 48 22.4 3.2 -11.1091
768 1 49.6 24 4.8 -11.6111
769 3 0 25.6 3.2 -11.2346
771 3 3.2 25.6 3.2 -11.1529
773 3 6.4 25.6 3.2 -10.9495
775 2 9.6 25.6 3.2 -9.53283
777 1 12.8 25.6 3.2 -11.5492
779 1 16 25.6 3.2 -11.7088
781 1 19.2 25.6 3.2 -11.7963
783 1 22.4 25.6 3.2 -11.58
785 1 25.6 25.6 3.2 -11.5755
787 3 28.8 25.6 3.2 -10.981
789 1 32 25.6 3.2 -11.4453
791 3 35.2 25.6 3.2 -10.9811
793 2 38.4 25.6 3.2 -9.44911
795 3 41.6 25.6 3.2 -10.9511
797 2 44.8 25.6 3.2 -9.59243
799 2 48 25.6 3.2 -9.74669
770 3 1.6 27.2 4.8 -11.2049
801 2 0 28.8 3.2 -9.81769
772 3 4.8 27.2 4.8 -11.0703
803 1 3.2 28.8 3.2 -11.6768
774 1 8 27.2 4.8 -11.4785
805 1 6.4 28.8 3.2 -11.4218
776 2 11.2 27.2 4.8 -9.70702
807 2 9.6 28.8 3.2 -9.60401
778 3 14.4 27.2 4.8 -10.9959
809 1 12.8 28.8 3.2 -11.4593
780 3 17.6 27.2 4.8 -11.1643
811 1 16 28.8 3.2 -11.5367
782 3 20.8 27.2 4.8 -11.0362
813 1 19.2 28.8 3.2 -11.6445
784 1 24 27.2 4.8 -11.5302
815 1 22.4 28.8 3.2 -11.4699
817 1 25.6 28.8 3.2 -11.4032
786 3 27.2 27.2 4.8 -11.1365
819 1 28.8 28.8 3.2 -11.5551
788 1 30.4 27.2 4.8 -11.4449
821 1 32 28.8 3.2 -11.4115
790 3 33.6 27.2 4.8 -10.8037
823 1 35.2 28.8 3.2 -11.3367
792 1 36.8 27.2 4.8 -11.4737
825 1 38.4 28.8 3.2 -11.1175
794 1 40 27.2 4.8 -11.5981
827 1 41.6 28.8 3.2 -11.1523
796 1 43.2 27.2 4.8 -11.4751
829 1 44.8 28.8 3.2 -11.3569
798 3 46.4 27.2 4.8 -10.8734
831 3 48 28.8 3.2 -11.0984
800 1 49.6 27.2 4.8 -11.6278
802 2 1.6 30.4 4.8 -9.78693
833 1 0 32 3.2 -11.5241
804 2 4.8 30.4 4.8 -9.56547
835 1 3.2 32 3.2 -11.6901
806 1 8 30.4 4.8 -11.4559
837 1 6.4 32 3.2 -11.4764
808 1 11.2 30.4 4.8 -11.4818
839 2 9.6 32 3.2 -9.35026
810 1 14.4 30.4 4.8 -11.375
841 3 12.8 32 3.2 -10.7975
812 1 17.6 30.4 4.8 -11.5152
843 1 16 32 3.2 -11.429
814 1 20.8 30.4 4.8 -11.5618
845 1 19.2 32 3.2 -11.5223
816 1 24 30.4 4.8 -11.4153
847 2 22.4 32 3.2 -9.41769
849 1 25.6 32 3.2 -11.227
818 1 27.2 30.4 4.8 -11.5533
851 1 28.8 32 3.2 -11.4207
820 1 30.4 30.4 4.8 -11.5364
853 2 32 32 3.2 -9.74508
822 3 33.6 30.4 4.8 -11.0219
855 1 35.2 32 3.2 -11.6849
824 1 36.8 30.4 4.8 -11.3474
857 2 38.4 32 3.2 -9.60346
826 1 40 30.4 4.8 -11.353
859 2 41.6 32 3.2 -9.52491
828 1 43.2 30.4 4.8 -11.4729
861 3 44.8 32 3.2 -11.0378
830 3 46.4 30.4 4.8 -11.1524
863 2 48 32 3.2 -9.52331
832 1 49.6 30.4 4.8 -11.6717
834 3 1.6 33.6 4.8 -11.0824
865 1 0 35.2 3.2 -11.4162
836 2 4.8 33.6 4.8 -9.67188
867 1 3.2 35.2 3.2 -11.6502
838 1 8 33.6 4.8 -11.522
869 1 6.4 35.2 3.2 -11.4745
840 1 11.2 33.6 4.8 -11.5809
871 1 9.6 35.2 3.2 -11.374
842 1 14.4 33.6 4.8 -11.6234
873 3 12.8 35.2 3.2 -11.1839
844 1 17.6 33.6 4.8 -11.5824
875 2 16 35.2 3.2 -9.64637
846 1 20.8 33.6 4.8 -11.5818
877 1 19.2 35.2 3.2 -11.4592
848 1 24 33.6 4.8 -11.4755
879 1 22.4 35.2 3.2 -11.4207
881 1 25.6 35.2 3.2 -11.43
850 2 27.2 33.6 4.8 -9.53368
883 1 28.8 35.2 3.2 -11.3861
852 1 30.4 33.6 4.8 -11.5805
885 1 32 35.2 3.2 -11.4868
854 3 33.6 33.6 4.8 -11.3535
887 1 35.2 35.2 3.2 -11.751
856 3 36.8 33.6 4.8 -10.9939
889 1 38.4 35.2 3.2 -11.7366
858 1 40 33.6 4.8 -11.3148
891 1 41.6 35.2 3.2 -11.402
860 1 43.2 33.6 4.8 -11.2465
893 1 44.8 35.2 3.2 -11.2903
862 1 46.4 33.6 4.8 -11.516
895 1 48 35.2 3.2 -11.4399
864 1 49.6 33.6 4.8 -11.5544
866 3 1.6 36.8 4.8 -11.0444
897 2 0 38.4 3.2 -9.63973
868 3 4.8 36.8 4.8 -11.0357
899 1 3.2 38.4 3.2 -11.5276
870 2 8 36.8 4.8 -9.57009
901 1 6.4 38.4 3.2 -11.5771
872 2 11.2 36.8 4.8 -9.7441
903 1 9.6 38.4 3.2 -11.4882
874 1 14.4 36.8 4.8 -11.802
905 2 12.8 38.4 3.2 -9.68763
876 1 17.6 36.8 4.8 -11.5274
907 2 16 38.4 3.2 -9.56019
878 1 20.8 36.8 4.8 -11.4251
909 1 19.2 38.4 3.2 -11.3911
880 1 24 36.8 4.8 -11.3623
911 1 22.4 38.4 3.2 -11.5366
913 1 25.6 38.4 3.2 -11.6497
882 2 27.2 36.8 4.8 -9.57043
915 1 28.8 38.4 3.2 -11.4039
884 1 30.4 36.8 4.8 -11.3943
917 2 32 38.4 3.2 -9.49202
886 3 33.6 36.8 4.8 -11.1169
919 1 35.2 38.4 3.2 -11.4571
888 2 36.8 36.8 4.8 -9.61511
921 1 38.4 38.4 3.2 -11.5156
890 2 40 36.8 4.8 -9.50046
923 1 41.6 38.4 3.2 -11.536
892 1 43.2 36.8 4.8 -11.2808
925 2 44.8 38.4 3.2 -9.56128
894 1 46.4 36.8 4.8 -11.4373
927 2 48 38.4 3.2 -9.54615
896 3 49.6 36.8 4.8 -11.029
898 1 1.6 40 4.8 -11.5136
929 3 0 41.6 3.2 -10.9976
900 1 4.8 40 4.8 -11.457
931 3 3.2 41.6 3.2 -11.1143
902 2 8 40 4.8 -9.49776
933 3 6.4 41.6 3.2 -11.1573
904 2 11.2 40 4.8 -9.49555
935 1 9.6 41.6 3.2 -11.6026
906 1 14.4 40 4.8 -11.51
937 1 12.8 41.6 3.2 -11.5307
908 1 17.6 40 4.8 -11.4358
939 2 16 41.6 3.2 -9.55461
910 2 20.8 40 4.8 -9.59681
941 1 19.2 41.6 3.2 -11.5551
912 3 24 40 4.8 -10.9936
943 1 22.4 41.6 3.2 -11.7844
945 1 25.6 41.6 3.2 -11.7575
914 2 27.2 40 4.8 -9.58062
947 1 28.8 41.6 3.2 -11.4797
916 1 30.4 40 4.8 -11.3111
949 2 32 41.6 3.2 -9.39733
918 1 33.6 40 4.8 -11.4852
951 2 35.2 41.6 3.2 -9.58749
920 1 36.8 40 4.8 -11.4083
953 3 38.4 41.6 3.2 -10.95
922 1 40 40 4.8 -11.4236
955 1 41.6 41.6 3.2 -11.3695
924 1 43.2 40 4.8 -11.4671
957 3 44.8 41.6 3.2 -11.1227
926 1 46.4 40 4.8 -11.5452
959 2 48 41.6 3.2 -9.58748
928 1 49.6 40 4.8 -11.6019
930 1 1.6 43.2 4.8 -11.6467
961 3 0 44.8 3.2 -11.1278
932 1 4.8 43.2 4.8 -11.5002
963 3 3.2 44.8 3.2 -10.9535
934 3 8 43.2 4.8 -10.8344
965 1 6.4 44.8 3.2 -11.4811
936 2 11.2 43.2 4.8 -9.60372
967 1 9.6 44.8 3.2 -11.5258
938 2 14.4 43.2 4.8 -9.61428
969 2 12.8 44.8 3.2 -9.68795
940 1 17.6 43.2 4.8 -11.4609
971 3 16 44.8 3.2 -11.1136
942 3 20.8 43.2 4.8 -11.0833
973 1 19.2 44.8 3.2 -11.7454
944 3 24 43.2 4.8 -10.9925
975 1 22.4 44.8 3.2 -11.7451
977 1 25.6 44.8 3.2 -11.5817
946 3 27.2 43.2 4.8 -10.95
979 1 28.8 44.8 3.2 -11.4809
948 1 30.4 43.2 4.8 -11.5092
981 2 32 44.8 3.2 -9.43869
950 1 33.6 43.2 4.8 -11.6576
983 2 35.2 44.8 3.2 -9.67802
952 1 36.8 43.2 4.8 -11.723
985 3 38.4 44.8 3.2 -10.9471
954 1 40 43.2 4.8 -11.4994
987 2 41.6 44.8 3.2 -9.55348
956 1 43.2 43.2 4.8 -11.484
989 3 44.8 44.8 3.2 -11.0838
958 1 46.4 43.2 4.8 -11.6181
991 3 48 44.8 3.2 -11.0429
960 1 49.6 43.2 4.8 -11.5335
962 1 1.6 46.4 4.8 -11.5835
993 3 0 48 3.2 -11.0435
964 1 4.8 46.4 4.8 -11.247
995 3 3.2 48 3.2 -10.9581
966 1 8 46.4 4.8 -11.3428
997 2 6.4 48 3.2 -9.54536
968 1 11.2 46.4 4.8 -11.5281
999 3 9.6 48 3.2 -10.6947
970 1 14.4 46.4 4.8 -11.5761
1001 1 12.8 48 3.2 -11.3399
972 3 17.6 46.4 4.8 -11.2186
1003 1 16 48 3.2 -11.4335
974 3 20.8 46.4 4.8 -11.0314
1005 1 19.2 48 3.2 -11.5708
976 1 24 46.4 4.8 -11.3204
1007 1 22.4 48 3.2 -11.5281
1009 1 25.6 48 3.2 -11.5103
978 2 27.2 46.4 4.8 -9.60787
1011 3 28.8 48 3.2 -11.066
980 1 30.4 46.4 4.8 -11.5511
1013 3 32 48 3.2 -10.9574
982 1 33.6 46.4 4.8 -11.618
1015 3 35.2 48 3.2 -10.9946
984 1 36.8 46.4 4.8 -11.5444
1017 1 38.4 48 3.2 -11.2269
986 1 40 46.4 4.8 -11.3922
1019 2 41.6 48 3.2 -9.35054
988 1 43.2 46.4 4.8 -11.5222
1021 3 44.8 48 3.2 -10.9472
990 1 46.4 46.4 4.8 -11.4725
1023 3 48 48 3.2 -10.9512
992 1 49.6 46.4 4.8 -11.4833
994 1 1.6 49.6 4.8 -11.6803
996 1 4.8 49.6 4.8 -11.5981
998 1 8 49.6 4.8 -11.573
1000 1 11.2 49.6 4.8 -11.6406
1002 1 14.4 49.6 4.8 -11.5428
1004 2 17.6 49.6 4.8 -9.69409
1006 1 20.8 49.6 4.8 -11.5043
1008 2 24 49.6 4.8 -9.43769
1010 3 27.2 49.6 4.8 -11.0421
1012 1 30.4 49.6 4.8 -11.724
1014 1 33.6 49.6 4.8 -11.7096
1016 1 36.8 49.6 4.8 -11.5659
1018 1 40 49.6 4.8 -11.2214
1020 1 43.2 49.6 4.8 -11.2336
1022 1 46.4 49.6 4.8 -11.3485
1024 1 49.6 49.6 4.8 -11.4574
1025 3 0 0 6.4 -11.0392
1026 1 1.6 1.6 8 -11.547
1027 3 3.2 0 6.4 -10.8578
1028 1 4.8 1.6 8 -11.5773
1029 3 6.4 0 6.4 -10.9941
1030 1 8 1.6 8 -11.6419
1031 3 9.6 0 6.4 -10.9561
1032 1 11.2 1.6 8 -11.7087
1033 3 12.8 0 6.4 -11.2094
1034 1 14.4 1.6 8 -11.6158
1035 2 16 0 6.4 -9.63313
1036 1 17.6 1.6 8 -11.5103
1037 2 19.2 0 6.4 -9.73564
1038 2 20.8 1.6 8 -9.52913
1039 1 22.4 0 6.4 -11.5317
1040 1 24 1.6 8 -11.3506
1041 1 25.6 0 6.4 -11.4097
1042 1 27.2 1.6 8 -11.5594
1043 3 28.8 0 6.4 -11.1244
1044 1 30.4 1.6 8 -11.6529
1045 3 32 0 6.4 -11.0429
1046 1 33.6 1.6 8 -11.6913
1047 3 35.2 0 6.4 -11.1695
1048 1 36.8 1.6 8 -11.6745
1049 3 38.4 0 6.4 -10.8051
1050 1 40 1.6 8 -11.4466
1051 1 41.6 0 6.4 -11.3276
1052 2 43.2 1.6 8 -9.46266
1053 1 44.8 0 6.4 -11.3564
1054 1 46.4 1.6 8 -11.1958
1055 1 48 0 6.4 -11.3525
1056 2 49.6 1.6 8 -9.35634
1057 2 0 3.2 6.4 -9.50099
1058 2 1.6 4.8 8 -9.50221
1059 1 3.2 3.2 6.4 -11.3126
1060 1 4.8 4.8 8 -11.3999
1061 3 6.4 3.2 6.4 -10.9594
1062 1 8 4.8 8 -11.5165
1063 1 9.6 3.2 6.4 -11.281
1064 1 11.2 4.8 8 -11.4573
1065 3 12.8 3.2 6.4 -10.8573
1066 1 14.4 4.8 8 -11.5455
1067 1 16 3.2 6.4 -11.4594
1068 1 17.6 4.8 8 -11.4888
1069 2 19.2 3.2 6.4 -9.62844
1070 1 20.8 4.8 8 -11.2466
1071 1 22.4 3.2 6.4 -11.4857
1072 1 24 4.8 8 -11.2484
1073 1 25.6 3.2 6.4 -11.3855
1074 1 27.2 4.8 8 -11.4371
1075 2 28.8 3.2 6.4 -9.66624
1076 1 30.4 4.8 8 -11.5707
1077 2 32 3.2 6.4 -9.64325
1078 2 33.6 4.8 8 -9.52823
1079 2 35.2 3.2 6.4 -9.55202
1080 1 36.8 4.8 8 -11.4135
1081 1 38.4 3.2 6.4 -11.2963
1082 1 40 4.8 8 -11.3571
1083 1 41.6 3.2 6.4 -11.4504
1084 3 43.2 4.8 8 -10.8991
1085 1 44.8 3.2 6.4 -11.5579
1086 1 46.4 4.8 8 -11.108
1087 1 48 3.2 6.4 -11.2935
1088 1 49.6 4.8 8 -11.2144
1089 1 0 6.4 6.4 -11.3526
1090 3 1.6 8 8 -10.9861
1091 1 3.2 6.4 6.4 -11.3368
1092 1 4.8 8 8 -11.3909
1093 2 6.4 6.4 6.4 -9.51482
1094 3 8 8 8 -10.887
1095 1 9.6 6.4 6.4 -11.2727
1096 2 11.2 8 8 -9.51348
1097 3 12.8 6.4 6.4 -11.0834
1098 1 14.4 8 8 -11.5959
1099 2 16 6.4 6.4 -9.61052
1100 1 17.6 8 8 -11.5049
1101 1 19.2 6.4 6.4 -11.4803
1102 1 20.8 8 8 -11.4244
1103 1 22.4 6.4 6.4 -11.3727