ITEM: TIMESTEP
0
ITEM: NUMBER OF ATOMS
8192
ITEM: BOX BOUNDS pp pp pp
0.0000000000000000e+00 5.1200000000000003e+01
0.0000000000000000e+00 5.1200000000000003e+01
0.0000000000000000e+00 5.1200000000000003e+01
ITEM: ATOMS id type x y z c_eng
1 2 0 0 0 -9.70739
2 1 1.6 1.6 1.6 -11.7846
3 3 3.2 0 0 -11.1657
4 1 4.8 1.6 1.6 -11.7846
5 3 6.4 0 0 -10.8989
6 1 8 1.6 1.6 -11.6343
7 1 9.6 0 0 -11.2619
8 1 11.2 1.6 1.6 -11.5692
9 1 12.8 0 0 -11.2966
10 1 14.4 1.6 1.6 -11.4052
11 1 16 0 0 -11.4503
12 3 17.6 1.6 1.6 -10.9983
13 1 19.2 0 0 -11.7846
14 2 20.8 1.6 1.6 -9.70717
15 1 22.4 0 0 -11.7511
16 2 24 1.6 1.6 -9.61724
17 1 25.6 0 0 -11.7208
18 2 27.2 1.6 1.6 -9.47267
19 1 28.8 0 0 -11.6298
20 1 30.4 1.6 1.6 -11.4059
21 2 32 0 0 -9.6416
22 1 33.6 1.6 1.6 -11.3901
23 1 35.2 0 0 -11.3522
24 1 36.8 1.6 1.6 -11.2351
25 1 38.4 0 0 -11.3409
26 1 40 1.6 1.6 -11.2159
27 1 41.6 0 0 -11.3271
28 2 43.2 1.6 1.6 -9.48227
29 1 44.8 0 0 -11.392
30 2 46.4 1.6 1.6 -9.49701
31 2 48 0 0 -9.59881
32 1 49.6 1.6 1.6 -11.6314
33 3 0 3.2 0 -11.0829
34 1 1.6 4.8 1.6 -11.7532
35 3 3.2 3.2 0 -11.1243
36 1 4.8 4.8 1.6 -11.7532
37 2 6.4 3.2 0 -9.64769
38 1 8 4.8 1.6 -11.7846
39 3 9.6 3.2 0 -10.9928
40 1 11.2 4.8 1.6 -11.8124
41 3 12.8 3.2 0 -10.9951
42 1 14.4 4.8 1.6 -11.6503
43 1 16 3.2 0 -11.5227
44 2 17.6 4.8 1.6 -9.63899
45 1 19.2 3.2 0 -11.7844
46 3 20.8 4.8 1.6 -11.0838
47 1 22.4 3.2 0 -11.7511
48 3 24 4.8 1.6 -11.2054
49 1 25.6 3.2 0 -11.7511
50 3 27.2 4.8 1.6 -11.166
51 1 28.8 3.2 0 -11.6749
52 3 30.4 4.8 1.6 -11.0435
53 1 32 3.2 0 -11.5894
54 2 33.6 4.8 1.6 -9.40389
55 1 35.2 3.2 0 -11.4183
56 1 36.8 4.8 1.6 -11.2249
57 1 38.4 3.2 0 -11.3338
58 1 40 4.8 1.6 -11.2455
59 1 41.6 3.2 0 -11.532
60 2 43.2 4.8 1.6 -9.41201
61 1 44.8 3.2 0 -11.4906
62 1 46.4 4.8 1.6 -11.3747
63 2 48 3.2 0 -9.52595
64 1 49.6 4.8 1.6 -11.6108
65 3 0 6.4 0 -11.169
66 1 1.6 8 1.6 -11.6824
67 2 3.2 6.4 0 -9.61366
68 1 4.8 8 1.6 -11.6478
69 3 6.4 6.4 0 -11.0835
70 1 8 8 1.6 -11.8124
71 3 9.6 6.4 0 -11.2441
72 1 11.2 8 1.6 -11.8124
73 3 12.8 6.4 0 -11.0378
74 1 14.4 8 1.6 -11.7505
75 2 16 6.4 0 -9.60485
76 1 17.6 8 1.6 -11.5017
77 1 19.2 6.4 0 -11.5835
78 2 20.8 8 1.6 -9.51307
79 1 22.4 6.4 0 -11.7811
80 3 24 8 1.6 -11.2048
81 1 25.6 6.4 0 -11.8417
82 3 27.2 8 1.6 -11.1654
83 1 28.8 6.4 0 -11.7096
84 2 30.4 8 1.6 -9.50472
85 1 32 6.4 0 -11.5837
86 1 33.6 8 1.6 -11.2896
87 1 35.2 6.4 0 -11.4554
88 1 36.8 8 1.6 -11.2715
89 1 38.4 6.4 0 -11.4582
90 2 40 8 1.6 -9.45496
91 1 41.6 6.4 0 -11.5155
92 1 43.2 8 1.6 -11.2934
93 1 44.8 6.4 0 -11.4033
94 1 46.4 8 1.6 -11.33
95 2 48 6.4 0 -9.56188
96 1 49.6 8 1.6 -11.6449
97 3 0 9.6 0 -10.8041
98 1 1.6 11.2 1.6 -11.6513
99 1 3.2 9.6 0 -11.351
100 1 4.8 11.2 1.6 -11.6753
101 2 6.4 9.6 0 -9.54341
102 1 8 11.2 1.6 -11.8124
103 3 9.6 9.6 0 -11.167
104 1 11.2 11.2 1.6 -11.7511
105 2 12.8 9.6 0 -9.57981
106 1 14.4 11.2 1.6 -11.625
107 2 16 9.6 0 -9.56782
108 2 17.6 11.2 1.6 -9.60732
109 1 19.2 9.6 0 -11.5569
110 3 20.8 11.2 1.6 -10.9986
111 1 22.4 9.6 0 -11.7511
112 3 24 11.2 1.6 -11.0833
113 1 25.6 9.6 0 -11.7808
114 2 27.2 11.2 1.6 -9.6628
115 1 28.8 9.6 0 -11.625
116 2 30.4 11.2 1.6 -9.64298
117 1 32 9.6 0 -11.519
118 2 33.6 11.2 1.6 -9.53467
119 1 35.2 9.6 0 -11.5314
120 2 36.8 11.2 1.6 -9.45464
121 1 38.4 9.6 0 -11.5823
122 2 40 11.2 1.6 -9.45125
123 1 41.6 9.6 0 -11.5348
124 1 43.2 11.2 1.6 -11.3838
125 1 44.8 9.6 0 -11.4423
126 1 46.4 11.2 1.6 -11.4108
127 1 48 9.6 0 -11.3623
128 1 49.6 11.2 1.6 -11.5008
129 2 0 12.8 0 -9.48192
130 1 1.6 14.4 1.6 -11.7511
131 2 3.2 12.8 0 -9.50541
132 1 4.8 14.4 1.6 -11.7831
133 3 6.4 12.8 0 -11.1258
134 1 8 14.4 1.6 -11.7511
135 3 9.6 12.8 0 -11.1671
136 1 11.2 14.4 1.6 -11.5817
137 2 12.8 12.8 0 -9.45031
138 1 14.4 14.4 1.6 -11.4196
139 1 16 12.8 0 -11.5116
140 1 17.6 14.4 1.6 -11.4264
141 1 19.2 12.8 0 -11.5187
142 1 20.8 14.4 1.6 -11.4073
143 1 22.4 12.8 0 -11.5498
144 1 24 14.4 1.6 -11.3699
145 1 25.6 12.8 0 -11.5396
146 1 27.2 14.4 1.6 -11.3676
147 2 28.8 12.8 0 -9.60308
148 1 30.4 14.4 1.6 -11.564
149 1 32 12.8 0 -11.4761
150 1 33.6 14.4 1.6 -11.4528
151 1 35.2 12.8 0 -11.5411
152 1 36.8 14.4 1.6 -11.3864
153 1 38.4 12.8 0 -11.529
154 1 40 14.4 1.6 -11.4256
155 1 41.6 12.8 0 -11.5222
156 1 43.2 14.4 1.6 -11.4396
157 1 44.8 12.8 0 -11.4779
158 1 46.4 14.4 1.6 -11.4788
159 1 48 12.8 0 -11.3087
160 1 49.6 14.4 1.6 -11.5351
161 3 0 16 0 -10.9454
162 1 1.6 17.6 1.6 -11.8417
163 3 3.2 16 0 -11.083
164 1 4.8 17.6 1.6 -11.7811
165 3 6.4 16 0 -11.1262
166 1 8 17.6 1.6 -11.6573
167 2 9.6 16 0 -9.54512
168 1 11.2 17.6 1.6 -11.3978
169 1 12.8 16 0 -11.1853
170 1 14.4 17.6 1.6 -11.2406
171 1 16 16 0 -11.2525
172 1 17.6 17.6 1.6 -11.389
173 2 19.2 16 0 -9.56959
174 1 20.8 17.6 1.6 -11.7208
175 3 22.4 16 0 -10.95
176 1 24 17.6 1.6 -11.6114
177 2 25.6 16 0 -9.50098
178 1 27.2 17.6 1.6 -11.5514
179 3 28.8 16 0 -10.998
180 1 30.4 17.6 1.6 -11.6915
181 2 32 16 0 -9.5594
182 1 33.6 17.6 1.6 -11.6617
183 2 35.2 16 0 -9.48289
184 1 36.8 17.6 1.6 -11.4984
185 1 38.4 16 0 -11.4959
186 1 40 17.6 1.6 -11.4433
187 1 41.6 16 0 -11.4419
188 1 43.2 17.6 1.6 -11.5527
189 1 44.8 16 0 -11.4812
190 1 46.4 17.6 1.6 -11.6781
191 1 48 16 0 -11.4179
192 1 49.6 17.6 1.6 -11.7447
193 3 0 19.2 0 -11.2083
194 1 1.6 20.8 1.6 -11.6293
195 3 3.2 19.2 0 -11.1255
196 1 4.8 20.8 1.6 -11.597
197 3 6.4 19.2 0 -11.1674
198 1 8 20.8 1.6 -11.4811
199 2 9.6 19.2 0 -9.47321
200 1 11.2 20.8 1.6 -11.3187
201 1 12.8 19.2 0 -11.3198
202 3 14.4 20.8 1.6 -10.8592
203 1 16 19.2 0 -11.2939
204 1 17.6 20.8 1.6 -11.3572
205 2 19.2 19.2 0 -9.51387
206 1 20.8 20.8 1.6 -11.5189
207 3 22.4 19.2 0 -11.1274
208 1 24 20.8 1.6 -11.6175
209 2 25.6 19.2 0 -9.64636
210 1 27.2 20.8 1.6 -11.6279
211 2 28.8 19.2 0 -9.58271
212 1 30.4 20.8 1.6 -11.662
213 2 32 19.2 0 -9.62931
214 1 33.6 20.8 1.6 -11.6212
215 2 35.2 19.2 0 -9.5191
216 1 36.8 20.8 1.6 -11.4192
217 1 38.4 19.2 0 -11.3906
218 1 40 20.8 1.6 -11.4456
219 1 41.6 19.2 0 -11.4194
220 1 43.2 20.8 1.6 -11.4717
221 3 44.8 19.2 0 -10.9896
222 1 46.4 20.8 1.6 -11.5627
223 3 48 19.2 0 -11.0429
224 1 49.6 20.8 1.6 -11.5981
225 3 0 22.4 0 -10.9986
226 1 1.6 24 1.6 -11.4267
227 3 3.2 22.4 0 -10.859
228 1 4.8 24 1.6 -11.3461
229 3 6.4 22.4 0 -10.8468
230 1 8 24 1.6 -11.1783
231 1 9.6 22.4 0 -11.2664
232 2 11.2 24 1.6 -9.42535
233 1 12.8 22.4 0 -11.5502
234 3 14.4 24 1.6 -10.9935
235 1 16 22.4 0 -11.5602
236 2 17.6 24 1.6 -9.58004
237 1 19.2 22.4 0 -11.4022
238 2 20.8 24 1.6 -9.53131
239 2 22.4 22.4 0 -9.52352
240 1 24 24 1.6 -11.5349
241 3 25.6 22.4 0 -11.04
242 1 27.2 24 1.6 -11.662
243 2 28.8 22.4 0 -9.67769
244 1 30.4 24 1.6 -11.6156
245 3 32 22.4 0 -10.9497
246 1 33.6 24 1.6 -11.4308
247 1 35.2 22.4 0 -11.1869
248 1 36.8 24 1.6 -11.4308
249 1 38.4 22.4 0 -11.2933
250 1 40 24 1.6 -11.6205
251 1 41.6 22.4 0 -11.4401
252 1 43.2 24 1.6 -11.5669
253 2 44.8 22.4 0 -9.45957
254 1 46.4 24 1.6 -11.4678
255 2 48 22.4 0 -9.52895
256 1 49.6 24 1.6 -11.4192
257 2 0 25.6 0 -9.50157
259 1 3.2 25.6 0 -11.463
261 1 6.4 25.6 0 -11.3268
263 1 9.6 25.6 0 -11.3442
265 1 12.8 25.6 0 -11.6124
267 1 16 25.6 0 -11.688
269 1 19.2 25.6 0 -11.61
271 1 22.4 25.6 0 -11.3946
273 2 25.6 25.6 0 -9.57968
275 3 28.8 25.6 0 -11.0835
277 3 32 25.6 0 -11.0392
279 2 35.2 25.6 0 -9.47346
281 2 38.4 25.6 0 -9.56038
283 2 41.6 25.6 0 -9.53448
285 2 44.8 25.6 0 -9.63507
287 3 48 25.6 0 -10.9032
258 2 1.6 27.2 1.6 -9.56547
289 1 0 28.8 0 -11.5055
260 3 4.8 27.2 1.6 -10.9954
291 1 3.2 28.8 0 -11.6915
262 2 8 27.2 1.6 -9.41282
293 1 6.4 28.8 0 -11.4195
264 3 11.2 27.2 1.6 -10.8536
295 1 9.6 28.8 0 -11.4395
266 1 14.4 27.2 1.6 -11.2818
297 1 12.8 28.8 0 -11.4967
268 3 17.6 27.2 1.6 -11.0386
299 1 16 28.8 0 -11.5976
270 3 20.8 27.2 1.6 -11.0837
301 1 19.2 28.8 0 -11.8124
272 1 24 27.2 1.6 -11.4884
303 1 22.4 28.8 0 -11.4405
305 2 25.6 28.8 0 -9.51512
274 1 27.2 27.2 1.6 -11.6919
307 2 28.8 28.8 0 -9.58168
276 1 30.4 27.2 1.6 -11.5382
309 2 32 28.8 0 -9.57992
278 1 33.6 27.2 1.6 -11.4149
311 3 35.2 28.8 0 -10.9936
280 1 36.8 27.2 1.6 -11.5692
313 3 38.4 28.8 0 -11.0392
282 1 40 27.2 1.6 -11.5693
315 1 41.6 28.8 0 -11.2573
284 1 43.2 27.2 1.6 -11.5423
317 3 44.8 28.8 0 -10.8497
286 1 46.4 27.2 1.6 -11.6919
319 2 48 28.8 0 -9.48864
288 1 49.6 27.2 1.6 -11.4498
290 2 1.6 30.4 1.6 -9.50555
321 1 0 32 0 -11.5059
292 3 4.8 30.4 1.6 -11.0432
323 1 3.2 32 0 -11.7583
294 1 8 30.4 1.6 -11.2537
325 1 6.4 32 0 -11.4445
296 1 11.2 30.4 1.6 -11.3327
327 2 9.6 32 0 -9.48089
298 1 14.4 30.4 1.6 -11.1366
329 1 12.8 32 0 -11.4541
300 3 17.6 30.4 1.6 -11.0427
331 1 16 32 0 -11.5842
302 3 20.8 30.4 1.6 -10.9946
333 1 19.2 32 0 -11.8122
304 1 24 30.4 1.6 -11.4607
335 1 22.4 32 0 -11.6199
337 2 25.6 32 0 -9.62951
306 1 27.2 30.4 1.6 -11.7205
339 3 28.8 32 0 -11.0848
308 1 30.4 30.4 1.6 -11.5348
341 2 32 32 0 -9.59852
310 1 33.6 30.4 1.6 -11.4294
343 2 35.2 32 0 -9.5967
312 1 36.8 30.4 1.6 -11.5965
345 3 38.4 32 0 -11.0852
314 1 40 30.4 1.6 -11.5981
347 3 41.6 32 0 -10.9078
316 1 43.2 30.4 1.6 -11.5739
349 2 44.8 32 0 -9.54485
318 1 46.4 30.4 1.6 -11.6108
351 1 48 32 0 -11.3804
320 1 49.6 30.4 1.6 -11.377
322 3 1.6 33.6 1.6 -11.1269
353 1 0 35.2 0 -11.5192
324 3 4.8 33.6 1.6 -11.127
355 1 3.2 35.2 0 -11.597
326 1 8 33.6 1.6 -11.2994
357 1 6.4 35.2 0 -11.4004
328 2 11.2 33.6 1.6 -9.45058
359 1 9.6 35.2 0 -11.4717
330 1 14.4 33.6 1.6 -11.3699
361 1 12.8 35.2 0 -11.5814
332 2 17.6 33.6 1.6 -9.63867
363 1 16 35.2 0 -11.5601
334 3 20.8 33.6 1.6 -10.9956
365 1 19.2 35.2 0 -11.6106
336 2 24 33.6 1.6 -9.7104
367 1 22.4 35.2 0 -11.6502
369 3 25.6 35.2 0 -11.1468
338 1 27.2 33.6 1.6 -11.7853
371 3 28.8 35.2 0 -11.0397
340 1 30.4 33.6 1.6 -11.5888
373 2 32 35.2 0 -9.60706
342 2 33.6 33.6 1.6 -9.53604
375 1 35.2 35.2 0 -11.4277
344 1 36.8 33.6 1.6 -11.4468
377 1 38.4 35.2 0 -11.1808
346 1 40 33.6 1.6 -11.4423
379 1 41.6 35.2 0 -11.1903
348 1 43.2 33.6 1.6 -11.4196
381 1 44.8 35.2 0 -11.2791
350 1 46.4 33.6 1.6 -11.3712
383 1 48 35.2 0 -11.3182
352 2 49.6 33.6 1.6 -9.41404
354 3 1.6 36.8 1.6 -10.9505
385 1 0 38.4 0 -11.3106
356 3 4.8 36.8 1.6 -10.9935
387 1 3.2 38.4 0 -11.4432
358 1 8 36.8 1.6 -11.2594
389 1 6.4 38.4 0 -11.453
360 2 11.2 36.8 1.6 -9.47359
391 1 9.6 38.4 0 -11.5084
362 2 14.4 36.8 1.6 -9.5667
393 1 12.8 38.4 0 -11.6165
364 1 17.6 36.8 1.6 -11.4276
395 1 16 38.4 0 -11.4923
366 2 20.8 36.8 1.6 -9.43906
397 1 19.2 38.4 0 -11.4161
368 2 24 36.8 1.6 -9.60515
399 1 22.4 38.4 0 -11.4561
401 1 25.6 38.4 0 -11.347
370 1 27.2 36.8 1.6 -11.5191
403 1 28.8 38.4 0 -11.2137
372 1 30.4 36.8 1.6 -11.3102
405 1 32 38.4 0 -11.2387
374 3 33.6 36.8 1.6 -10.6885
407 1 35.2 38.4 0 -11.3714
376 2 36.8 36.8 1.6 -9.47446
409 1 38.4 38.4 0 -11.3311
378 2 40 36.8 1.6 -9.36271
411 1 41.6 38.4 0 -11.3245
380 1 43.2 36.8 1.6 -11.4084
413 2 44.8 38.4 0 -9.45855
382 1 46.4 36.8 1.6 -11.3888
415 1 48 38.4 0 -11.3411
384 3 49.6 36.8 1.6 -10.7465
386 1 1.6 40 1.6 -11.2933
417 2 0 41.6 0 -9.47334
388 3 4.8 40 1.6 -10.9526
419 1 3.2 41.6 0 -11.4367
390 2 8 40 1.6 -9.41158
421 1 6.4 41.6 0 -11.4507
392 3 11.2 40 1.6 -11.0857
423 1 9.6 41.6 0 -11.5545
394 3 14.4 40 1.6 -11.1163
425 1 12.8 41.6 0 -11.6939
396 2 17.6 40 1.6 -9.55483
427 1 16 41.6 0 -11.5886
398 2 20.8 40 1.6 -9.57993
429 1 19.2 41.6 0 -11.5307
400 3 24 40 1.6 -11.04
431 1 22.4 41.6 0 -11.5653
433 1 25.6 41.6 0 -11.5352
402 3 27.2 40 1.6 -10.7976
435 1 28.8 41.6 0 -11.3873
404 1 30.4 40 1.6 -11.235
437 2 32 41.6 0 -9.40472
406 1 33.6 40 1.6 -11.3888
439 1 35.2 41.6 0 -11.3458
408 2 36.8 40 1.6 -9.41595
441 1 38.4 41.6 0 -11.2892
410 1 40 40 1.6 -11.3927
443 3 41.6 41.6 0 -10.9489
412 1 43.2 40 1.6 -11.617
445 2 44.8 41.6 0 -9.64625
414 1 46.4 40 1.6 -11.4702
447 2 48 41.6 0 -9.50895
416 1 49.6 40 1.6 -11.4263
418 1 1.6 43.2 1.6 -11.4866
449 3 0 44.8 0 -11.1668
420 2 4.8 43.2 1.6 -9.4522
451 2 3.2 44.8 0 -9.48773
422 2 8 43.2 1.6 -9.43919
453 1 6.4 44.8 0 -11.2505
424 3 11.2 43.2 1.6 -11.1677
455 1 9.6 44.8 0 -11.4496
426 3 14.4 43.2 1.6 -11.1259
457 1 12.8 44.8 0 -11.7528
428 3 17.6 43.2 1.6 -11.1265
459 1 16 44.8 0 -11.7242
430 3 20.8 43.2 1.6 -11.2057
461 1 19.2 44.8 0 -11.7811
432 3 24 43.2 1.6 -11.1246
463 1 22.4 44.8 0 -11.7846
465 1 25.6 44.8 0 -11.6913
434 2 27.2 43.2 1.6 -9.54623
467 1 28.8 44.8 0 -11.4744
436 1 30.4 43.2 1.6 -11.4116
469 3 32 44.8 0 -10.9504
438 1 33.6 43.2 1.6 -11.5827
471 2 35.2 44.8 0 -9.61465
440 1 36.8 43.2 1.6 -11.4914
473 3 38.4 44.8 0 -11.0389
442 1 40 43.2 1.6 -11.6296
475 3 41.6 44.8 0 -11.206
444 1 43.2 43.2 1.6 -11.7511
477 3 44.8 44.8 0 -11.1654
446 1 46.4 43.2 1.6 -11.6897
479 3 48 44.8 0 -11.166
448 1 49.6 43.2 1.6 -11.7183
450 1 1.6 46.4 1.6 -11.6819
481 3 0 48 0 -11.124
452 1 4.8 46.4 1.6 -11.5272
483 2 3.2 48 0 -9.67769
454 1 8 46.4 1.6 -11.4519
485 3 6.4 48 0 -10.9011
456 3 11.2 46.4 1.6 -11.0449
487 1 9.6 48 0 -11.4459
458 2 14.4 46.4 1.6 -9.61465
489 1 12.8 48 0 -11.53
460 3 17.6 46.4 1.6 -11.0824
491 1 16 48 0 -11.6161
462 3 20.8 46.4 1.6 -11.2045
493 1 19.2 48 0 -11.7846
464 2 24 46.4 1.6 -9.67747
495 1 22.4 48 0 -11.8124
497 1 25.6 48 0 -11.7511
466 2 27.2 46.4 1.6 -9.43342
499 1 28.8 48 0 -11.582
468 1 30.4 46.4 1.6 -11.4841
501 3 32 48 0 -11.1174
470 1 33.6 46.4 1.6 -11.656
503 3 35.2 48 0 -10.9037
472 1 36.8 46.4 1.6 -11.6824
505 3 38.4 48 0 -10.9462
474 1 40 46.4 1.6 -11.8124
507 2 41.6 48 0 -9.54499
476 1 43.2 46.4 1.6 -11.7532
509 3 44.8 48 0 -10.9946
478 1 46.4 46.4 1.6 -11.6824
511 3 48 48 0 -11.0824
480 1 49.6 46.4 1.6 -11.7451
482 1 1.6 49.6 1.6 -11.7846
484 1 4.8 49.6 1.6 -11.7831
486 1 8 49.6 1.6 -11.5683
488 1 11.2 49.6 1.6 -11.4254
490 1 14.4 49.6 1.6 -11.2471
492 2 17.6 49.6 1.6 -9.64757
494 3 20.8 49.6 1.6 -11.1645
496 3 24 49.6 1.6 -11.0832
498 2 27.2 49.6 1.6 -9.54611
500 2 30.4 49.6 1.6 -9.64152
502 1 33.6 49.6 1.6 -11.6485
504 1 36.8 49.6 1.6 -11.542
506 1 40 49.6 1.6 -11.4956
508 1 43.2 49.6 1.6 -11.4121
510 1 46.4 49.6 1.6 -11.4873
512 1 49.6 49.6 1.6 -11.6509
513 3 0 0 3.2 -11.1263
514 1 1.6 1.6 4.8 -11.6749
515 3 3.2 0 3.2 -11.2048
516 1 4.8 1.6 4.8 -11.7831
517 2 6.4 0 3.2 -9.70717
518 1 8 1.6 4.8 -11.7208
519 2 9.6 0 3.2 -9.57955
520 1 11.2 1.6 4.8 -11.6919
521 3 12.8 0 3.2 -10.7451
522 1 14.4 1.6 4.8 -11.4442
523 1 16 0 3.2 -11.4796
524 3 17.6 1.6 4.8 -10.9472
525 1 19.2 0 3.2 -11.7846
526 3 20.8 1.6 4.8 -11.1246
527 1 22.4 0 3.2 -11.7208
528 2 24 1.6 4.8 -9.54512
529 1 25.6 0 3.2 -11.4669
530 1 27.2 1.6 4.8 -11.1943
531 1 28.8 0 3.2 -11.3449
532 1 30.4 1.6 4.8 -11.383
533 3 32 0 3.2 -10.9865
534 1 33.6 1.6 4.8 -11.5177
535 3 35.2 0 3.2 -10.8578
536 1 36.8 1.6 4.8 -11.5512
537 3 38.4 0 3.2 -10.8466
538 1 40 1.6 4.8 -11.4199
539 1 41.6 0 3.2 -11.3926
540 3 43.2 1.6 4.8 -10.9496
541 1 44.8 0 3.2 -11.4265
542 2 46.4 1.6 4.8 -9.56549
543 2 48 0 3.2 -9.45346
544 1 49.6 1.6 4.8 -11.4694
545 2 0 3.2 3.2 -9.54396
546 1 1.6 4.8 4.8 -11.6175
547 3 3.2 3.2 3.2 -11.1243
548 1 4.8 4.8 4.8 -11.7511
549 3 6.4 3.2 3.2 -11.1235
550 1 8 4.8 4.8 -11.7811
551 2 9.6 3.2 3.2 -9.67735
552 1 11.2 4.8 4.8 -11.7208
553 3 12.8 3.2 3.2 -11.0435
554 1 14.4 4.8 4.8 -11.5345
555 1 16 3.2 3.2 -11.4516
556 1 17.6 4.8 4.8 -11.3584
557 1 19.2 3.2 3.2 -11.6473
558 2 20.8 4.8 4.8 -9.54462
559 1 22.4 3.2 3.2 -11.7245
560 3 24 4.8 4.8 -11.0846
561 1 25.6 3.2 3.2 -11.6119
562 2 27.2 4.8 4.8 -9.54448
563 1 28.8 3.2 3.2 -11.4508
564 3 30.4 4.8 4.8 -10.9956
565 1 32 3.2 3.2 -11.4438
566 2 33.6 4.8 4.8 -9.56516
567 1 35.2 3.2 3.2 -11.3391
568 2 36.8 4.8 4.8 -9.63745
569 1 38.4 3.2 3.2 -11.2475
570 2 40 4.8 4.8 -9.58764
571 1 41.6 3.2 3.2 -11.4174
572 3 43.2 4.8 4.8 -11.0857
573 1 44.8 3.2 3.2 -11.5811
574 2 46.4 4.8 4.8 -9.48822
575 1 48 3.2 3.2 -11.4251
576 1 49.6 4.8 4.8 -11.4703
577 3 0 6.4 3.2 -11.1274
578 1 1.6 8 4.8 -11.7811
579 2 3.2 6.4 3.2 -9.67958
580 1 4.8 8 4.8 -11.7811
581 3 6.4 6.4 3.2 -11.2048
582 1 8 8 4.8 -11.8417
583 3 9.6 6.4 3.2 -11.2039
584 1 11.2 8 4.8 -11.7096
585 3 12.8 6.4 3.2 -11.2065
586 1 14.4 8 4.8 -11.6454
587 3 16 6.4 3.2 -10.9965
588 1 17.6 8 4.8 -11.4639
589 1 19.2 6.4 3.2 -11.3999
590 1 20.8 8 4.8 -11.3622
591 1 22.4 6.4 3.2 -11.6753
592 3 24 8 4.8 -10.993
593 1 25.6 6.4 3.2 -11.8124
594 3 27.2 8 4.8 -11.0838
595 1 28.8 6.4 3.2 -11.7831
596 3 30.4 8 4.8 -11.0429
597 1 32 6.4 3.2 -11.6478
598 3 33.6 8 4.8 -10.9912
599 1 35.2 6.4 3.2 -11.4758
600 3 36.8 8 4.8 -11.0742
601 2 38.4 6.4 3.2 -9.53831
602 3 40 8 4.8 -11.0755
603 1 41.6 6.4 3.2 -11.5506
604 2 43.2 8 4.8 -9.63357
605 1 44.8 6.4 3.2 -11.4345
606 1 46.4 8 4.8 -11.5792
607 2 48 6.4 3.2 -9.45061
608 1 49.6 8 4.8 -11.6811
609 3 0 9.6 3.2 -11.1668
610 1 1.6 11.2 4.8 -11.7811
611 3 3.2 9.6 3.2 -11.081
612 1 4.8 11.2 4.8 -11.8417
613 3 6.4 9.6 3.2 -11.2045
614 1 8 11.2 4.8 -11.8417
615 3 9.6 9.6 3.2 -11.2432
616 1 11.2 11.2 4.8 -11.5981
617 3 12.8 9.6 3.2 -11.0413
618 1 14.4 11.2 4.8 -11.5012
619 3 16 9.6 3.2 -11.0834
620 1 17.6 11.2 4.8 -11.5729
621 1 19.2 9.6 3.2 -11.5231
622 3 20.8 11.2 4.8 -10.9546
623 1 22.4 9.6 3.2 -11.7087
624 3 24 11.2 4.8 -11.0875
625 1 25.6 9.6 3.2 -11.8124
626 3 27.2 11.2 4.8 -10.9006
627 1 28.8 9.6 3.2 -11.7216
628 2 30.4 11.2 4.8 -9.67117
629 1 32 9.6 3.2 -11.5656
630 1 33.6 11.2 4.8 -11.6046
631 1 35.2 9.6 3.2 -11.4526
632 1 36.8 11.2 4.8 -11.3294
633 1 38.4 9.6 3.2 -11.4688
634 1 40 11.2 4.8 -11.2505
635 1 41.6 9.6 3.2 -11.4336
636 1 43.2 11.2 4.8 -11.5826
637 2 44.8 9.6 3.2 -9.47953
638 1 46.4 11.2 4.8 -11.7505
639 2 48 9.6 3.2 -9.5455
640 1 49.6 11.2 4.8 -11.7208
641 2 0 12.8 3.2 -9.64805
642 1 1.6 14.4 4.8 -11.7811
643 3 3.2 12.8 3.2 -11.1654
644 1 4.8 14.4 4.8 -11.7093
645 3 6.4 12.8 3.2 -11.2051
646 1 8 14.4 4.8 -11.562
647 3 9.6 12.8 3.2 -11.1666
648 1 11.2 14.4 4.8 -11.4811
649 2 12.8 12.8 3.2 -9.55068
650 1 14.4 14.4 4.8 -11.5141
651 2 16 12.8 3.2 -9.52767
652 1 17.6 14.4 4.8 -11.4994
653 1 19.2 12.8 3.2 -11.3874
654 1 20.8 14.4 4.8 -11.5171
655 1 22.4 12.8 3.2 -11.5155
656 1 24 14.4 4.8 -11.4004
657 1 25.6 12.8 3.2 -11.3602
658 1 27.2 14.4 4.8 -11.3262
659 1 28.8 12.8 3.2 -11.4765
660 1 30.4 14.4 4.8 -11.5606
661 2 32 12.8 3.2 -9.60832
662 1 33.6 14.4 4.8 -11.5946
663 2 35.2 12.8 3.2 -9.41094
664 1 36.8 14.4 4.8 -11.4503
665 1 38.4 12.8 3.2 -11.3165
666 1 40 14.4 4.8 -11.5005
667 2 41.6 12.8 3.2 -9.48915
668 1 43.2 14.4 4.8 -11.7511
669 3 44.8 12.8 3.2 -10.9946
670 1 46.4 14.4 4.8 -11.8124
671 2 48 12.8 3.2 -9.57956
672 1 49.6 14.4 4.8 -11.7511
673 3 0 16 3.2 -11.2054
674 1 1.6 17.6 4.8 -11.7808
675 3 3.2 16 3.2 -11.2054
676 1 4.8 17.6 4.8 -11.5829
677 2 6.4 16 3.2 -9.57906
678 1 8 17.6 4.8 -11.4405
679 2 9.6 16 3.2 -9.59908
680 2 11.2 17.6 4.8 -9.57017
681 2 12.8 16 3.2 -9.49565
682 2 14.4 17.6 4.8 -9.57703
683 2 16 16 3.2 -9.51693
684 1 17.6 17.6 4.8 -11.6408
685 2 19.2 16 3.2 -9.54599
686 1 20.8 17.6 4.8 -11.7226
687 2 22.4 16 3.2 -9.51374
688 1 24 17.6 4.8 -11.5833
689 1 25.6 16 3.2 -11.2242
690 1 27.2 17.6 4.8 -11.5829
691 2 28.8 16 3.2 -9.51361
692 1 30.4 17.6 4.8 -11.7532
693 3 32 16 3.2 -10.9491
694 1 33.6 17.6 4.8 -11.682
695 1 35.2 16 3.2 -11.3847
696 1 36.8 17.6 4.8 -11.6584
697 3 38.4 16 3.2 -10.7447
698 1 40 17.6 4.8 -11.6919
699 3 41.6 16 3.2 -10.9993
700 1 43.2 17.6 4.8 -11.7223
701 3 44.8 16 3.2 -11.1264
702 1 46.4 17.6 4.8 -11.7808
703 3 48 16 3.2 -11.0819
704 1 49.6 17.6 4.8 -11.7811
705 3 0 19.2 3.2 -11.0822
706 1 1.6 20.8 4.8 -11.521
707 3 3.2 19.2 3.2 -11.0389
708 1 4.8 20.8 4.8 -11.4394
709 2 6.4 19.2 3.2 -9.56494
710 2 8 20.8 4.8 -9.41034
711 2 9.6 19.2 3.2 -9.57035
712 2 11.2 20.8 4.8 -9.66351
713 1 12.8 19.2 3.2 -11.5345
714 3 14.4 20.8 4.8 -10.9488
715 1 16 19.2 3.2 -11.5028
716 2 17.6 20.8 4.8 -9.54126
717 3 19.2 19.2 3.2 -10.95
718 1 20.8 20.8 4.8 -11.457
719 3 22.4 19.2 3.2 -10.9971
720 1 24 20.8 4.8 -11.4721
721 2 25.6 19.2 3.2 -9.51399
722 1 27.2 20.8 4.8 -11.6279
723 2 28.8 19.2 3.2 -9.6154
724 1 30.4 20.8 4.8 -11.6897
725 3 32 19.2 3.2 -11.1255
726 1 33.6 20.8 4.8 -11.6454
727 3 35.2 19.2 3.2 -10.9963
728 1 36.8 20.8 4.8 -11.681
729 2 38.4 19.2 3.2 -9.615
730 1 40 20.8 4.8 -11.7511
731 2 41.6 19.2 3.2 -9.58714
732 1 43.2 20.8 4.8 -11.5423
733 3 44.8 19.2 3.2 -11.0392
734 1 46.4 20.8 4.8 -11.4719
735 3 48 19.2 3.2 -11.0833
736 1 49.6 20.8 4.8 -11.5044
737 1 0 22.4 3.2 -11.3031
738 3 1.6 24 4.8 -10.8488
739 1 3.2 22.4 3.2 -11.3365
740 2 4.8 24 4.8 -9.42495
741 1 6.4 22.4 3.2 -11.267
742 1 8 24 4.8 -11.2578
743 1 9.6 22.4 3.2 -11.3593
744 3 11.2 24 4.8 -10.9018
745 1 12.8 22.4 3.2 -11.6475
746 2 14.4 24 4.8 -9.54523
747 1 16 22.4 3.2 -11.6473
748 3 17.6 24 4.8 -10.9931
749 1 19.2 22.4 3.2 -11.4792
750 2 20.8 24 4.8 -9.61517
751 1 22.4 22.4 3.2 -11.3676
752 1 24 24 4.8 -11.5237
753 2 25.6 22.4 3.2 -9.51426
754 1 27.2 24 4.8 -11.5949
755 2 28.8 22.4 3.2 -9.54835
756 1 30.4 24 4.8 -11.5583
757 2 32 22.4 3.2 -9.5455
758 1 33.6 24 4.8 -11.4485
759 2 35.2 22.4 3.2 -9.40333
760 1 36.8 24 4.8 -11.5766
761 3 38.4 22.4 3.2 -11.0397
762 1 40 24 4.8 -11.8417
763 3 41.6 22.4 3.2 -10.9452
764 1 43.2 24 4.8 -11.5632
765 1 44.8 22.4 3.2 -11.2158
766 1 46.4 24 4.8 -11.3535
767 1 48 22.4 3.2 -11.1879
768 1 49.6 24 4.8 -11.3655
769 1 0 25.6 3.2 -11.3911
771 1 3.2 25.6 3.2 -11.5643
773 1 6.4 25.6 3.2 -11.4191
775 1 9.6 25.6 3.2 -11.5054
777 1 12.8 25.6 3.2 -11.5435
779 1 16 25.6 3.2 -11.5432
781 1 19.2 25.6 3.2 -11.7617
783 2 22.4 25.6 3.2 -9.62612
785 2 25.6 25.6 3.2 -9.58331
787 2 28.8 25.6 3.2 -9.55007
789 1 32 25.6 3.2 -11.317
791 1 35.2 25.6 3.2 -11.2863
793 3 38.4 25.6 3.2 -11.0835
795 3 41.6 25.6 3.2 -11.0386
797 2 44.8 25.6 3.2 -9.54538
799 2 48 25.6 3.2 -9.43907
770 3 1.6 27.2 4.8 -10.8982
801 1 0 28.8 3.2 -11.2957
772 3 4.8 27.2 4.8 -11.168
803 1 3.2 28.8 3.2 -11.6824
774 2 8 27.2 4.8 -9.56943
805 1 6.4 28.8 3.2 -11.562
776 2 11.2 27.2 4.8 -9.60794
807 1 9.6 28.8 3.2 -11.428
778 1 14.4 27.2 4.8 -11.3177
809 1 12.8 28.8 3.2 -11.2163
780 2 17.6 27.2 4.8 -9.56865
811 1 16 28.8 3.2 -11.3778
782 2 20.8 27.2 4.8 -9.61489
813 1 19.2 28.8 3.2 -11.5602
784 1 24 27.2 4.8 -11.5596
815 1 22.4 28.8 3.2 -11.4095
817 3 25.6 28.8 3.2 -10.9476
786 1 27.2 27.2 4.8 -11.6582
819 3 28.8 28.8 3.2 -10.9936
788 1 30.4 27.2 4.8 -11.5606
821 1 32 28.8 3.2 -11.3069
790 2 33.6 27.2 4.8 -9.53717
823 1 35.2 28.8 3.2 -11.3663
792 1 36.8 27.2 4.8 -11.6258
825 3 38.4 28.8 3.2 -10.9571
794 1 40 27.2 4.8 -11.6824
827 1 41.6 28.8 3.2 -11.3136
796 1 43.2 27.2 4.8 -11.6537
829 3 44.8 28.8 3.2 -11.0424
798 1 46.4 27.2 4.8 -11.6582
831 2 48 28.8 3.2 -9.50971
800 1 49.6 27.2 4.8 -11.3737
802 1 1.6 30.4 4.8 -11.2544
833 1 0 32 3.2 -11.413
804 3 4.8 30.4 4.8 -11.0049
835 1 3.2 32 3.2 -11.7096
806 1 8 30.4 4.8 -11.3971
837 1 6.4 32 3.2 -11.5522
808 1 11.2 30.4 4.8 -11.4381
839 2 9.6 32 3.2 -9.42547
810 1 14.4 30.4 4.8 -11.4184
841 1 12.8 32 3.2 -11.1891
812 1 17.6 30.4 4.8 -11.4619
843 2 16 32 3.2 -9.53241
814 1 20.8 30.4 4.8 -11.262
845 1 19.2 32 3.2 -11.4887
816 1 24 30.4 4.8 -11.3868
847 1 22.4 32 3.2 -11.3901
849 2 25.6 32 3.2 -9.66182
818 1 27.2 30.4 4.8 -11.7208
851 3 28.8 32 3.2 -11.0429
820 1 30.4 30.4 4.8 -11.5265
853 1 32 32 3.2 -11.3435
822 2 33.6 30.4 4.8 -9.51463
855 1 35.2 32 3.2 -11.4295
824 1 36.8 30.4 4.8 -11.6123
857 3 38.4 32 3.2 -10.9995
826 1 40 30.4 4.8 -11.5856
859 2 41.6 32 3.2 -9.52858
828 1 43.2 30.4 4.8 -11.6454
861 3 44.8 32 3.2 -11.0862
830 1 46.4 30.4 4.8 -11.7511
863 2 48 32 3.2 -9.489
832 1 49.6 30.4 4.8 -11.2926
834 3 1.6 33.6 4.8 -10.8992
865 1 0 35.2 3.2 -11.6473
836 3 4.8 33.6 4.8 -11.168
867 1 3.2 35.2 3.2 -11.8124
838 2 8 33.6 4.8 -9.53788
869 1 6.4 35.2 3.2 -11.562
840 1 11.2 33.6 4.8 -11.4998
871 1 9.6 35.2 3.2 -11.3834
842 1 14.4 33.6 4.8 -11.5655
873 1 12.8 35.2 3.2 -11.3766
844 1 17.6 33.6 4.8 -11.619
875 3 16 35.2 3.2 -10.9521
846 1 20.8 33.6 4.8 -11.4103
877 1 19.2 35.2 3.2 -11.4139
848 1 24 33.6 4.8 -11.5529
879 1 22.4 35.2 3.2 -11.4487
881 3 25.6 35.2 3.2 -11.0729
850 1 27.2 33.6 4.8 -11.7528
883 2 28.8 35.2 3.2 -9.54511
852 1 30.4 33.6 4.8 -11.5188
885 1 32 35.2 3.2 -11.4074
854 2 33.6 33.6 4.8 -9.49042
887 1 35.2 35.2 3.2 -11.5129
856 2 36.8 33.6 4.8 -9.60401
889 1 38.4 35.2 3.2 -11.516
858 1 40 33.6 4.8 -11.4542
891 1 41.6 35.2 3.2 -11.3867
860 1 43.2 33.6 4.8 -11.4866
893 2 44.8 35.2 3.2 -9.42691
862 1 46.4 33.6 4.8 -11.4504
895 1 48 35.2 3.2 -11.3522
864 1 49.6 33.6 4.8 -11.3648
866 2 1.6 36.8 4.8 -9.61429
897 1 0 38.4 3.2 -11.4914
868 3 4.8 36.8 4.8 -11.1277
899 1 3.2 38.4 3.2 -11.5661
870 2 8 36.8 4.8 -9.47179
901 1 6.4 38.4 3.2 -11.5426
872 1 11.2 36.8 4.8 -11.3305
903 1 9.6 38.4 3.2 -11.4109
874 1 14.4 36.8 4.8 -11.5184
905 1 12.8 38.4 3.2 -11.5676
876 1 17.6 36.8 4.8 -11.4391
907 2 16 38.4 3.2 -9.65676
878 1 20.8 36.8 4.8 -11.3051
909 1 19.2 38.4 3.2 -11.4485
880 1 24 36.8 4.8 -11.4186
911 1 22.4 38.4 3.2 -11.5345
913 1 25.6 38.4 3.2 -11.5818
882 1 27.2 36.8 4.8 -11.477
915 1 28.8 38.4 3.2 -11.2351
884 1 30.4 36.8 4.8 -11.205
917 1 32 38.4 3.2 -11.1412
886 1 33.6 36.8 4.8 -11.3438
919 1 35.2 38.4 3.2 -11.4938
888 3 36.8 36.8 4.8 -10.9948
921 1 38.4 38.4 3.2 -11.5529
890 3 40 36.8 4.8 -10.9994
923 2 41.6 38.4 3.2 -9.60748
892 2 43.2 36.8 4.8 -9.56814
925 3 44.8 38.4 3.2 -10.895
894 1 46.4 36.8 4.8 -11.247
927 1 48 38.4 3.2 -11.3948
896 2 49.6 36.8 4.8 -9.48191
898 1 1.6 40 4.8 -11.3493
929 2 0 41.6 3.2 -9.4455
900 2 4.8 40 4.8 -9.49662
931 1 3.2 41.6 3.2 -11.427
902 1 8 40 4.8 -11.2943
933 1 6.4 41.6 3.2 -11.5502
904 2 11.2 40 4.8 -9.42467
935 1 9.6 41.6 3.2 -11.6119
906 3 14.4 40 4.8 -11.0358
937 1 12.8 41.6 3.2 -11.7844
908 2 17.6 40 4.8 -9.63336
939 1 16 41.6 3.2 -11.7528
910 3 20.8 40 4.8 -10.9939
941 1 19.2 41.6 3.2 -11.7205
912 3 24 40 4.8 -11.0833
943 1 22.4 41.6 3.2 -11.8124
945 1 25.6 41.6 3.2 -11.7811
914 3 27.2 40 4.8 -10.9519
947 1 28.8 41.6 3.2 -11.4442
916 1 30.4 40 4.8 -11.2337
949 3 32 41.6 3.2 -10.8021
918 1 33.6 40 4.8 -11.3402
951 2 35.2 41.6 3.2 -9.46057
920 2 36.8 40 4.8 -9.36601
953 1 38.4 41.6 3.2 -11.3461
922 1 40 40 4.8 -11.3563
955 3 41.6 41.6 3.2 -10.9016
924 1 43.2 40 4.8 -11.4936
957 2 44.8 41.6 3.2 -9.55093
926 1 46.4 40 4.8 -11.282
959 2 48 41.6 3.2 -9.5264
928 2 49.6 40 4.8 -9.46054
930 1 1.6 43.2 4.8 -11.3691
961 3 0 44.8 3.2 -10.9459
932 2 4.8 43.2 4.8 -9.57099
963 1 3.2 44.8 3.2 -11.4069
934 2 8 43.2 4.8 -9.45944
965 1 6.4 44.8 3.2 -11.4207
936 3 11.2 43.2 4.8 -11.0421
967 1 9.6 44.8 3.2 -11.6063
938 2 14.4 43.2 4.8 -9.64613
969 1 12.8 44.8 3.2 -11.7213
940 2 17.6 43.2 4.8 -9.61479
971 1 16 44.8 3.2 -11.6897
942 3 20.8 43.2 4.8 -11.2051
973 1 19.2 44.8 3.2 -11.7811
944 3 24 43.2 4.8 -11.1657
975 1 22.4 44.8 3.2 -11.7811
977 1 25.6 44.8 3.2 -11.5817
946 2 27.2 43.2 4.8 -9.55997
979 1 28.8 44.8 3.2 -11.3122
948 1 30.4 43.2 4.8 -11.4868
981 2 32 44.8 3.2 -9.62249
950 1 33.6 43.2 4.8 -11.5821
983 2 35.2 44.8 3.2 -9.51372
952 1 36.8 43.2 4.8 -11.4911
985 3 38.4 44.8 3.2 -11.0838
954 1 40 43.2 4.8 -11.5034
987 3 41.6 44.8 3.2 -11.0838
956 1 43.2 43.2 4.8 -11.4423
989 2 44.8 44.8 3.2 -9.58266
958 1 46.4 43.2 4.8 -11.4093
991 3 48 44.8 3.2 -10.8999
960 1 49.6 43.2 4.8 -11.495
962 1 1.6 46.4 4.8 -11.5562
993 3 0 48 3.2 -11.0833
964 1 4.8 46.4 4.8 -11.593
995 3 3.2 48 3.2 -11.0384
966 1 8 46.4 4.8 -11.5665
997 3 6.4 48 3.2 -11.0883
968 2 11.2 46.4 4.8 -9.70413
999 3 9.6 48 3.2 -10.9888
970 2 14.4 46.4 4.8 -9.60013
1001 1 12.8 48 3.2 -11.5447
972 2 17.6 46.4 4.8 -9.64636
1003 1 16 48 3.2 -11.504
974 3 20.8 46.4 4.8 -11.1664
1005 1 19.2 48 3.2 -11.7846
976 2 24 46.4 4.8 -9.65884
1007 1 22.4 48 3.2 -11.7508
1009 1 25.6 48 3.2 -11.5256
978 1 27.2 46.4 4.8 -11.3724
1011 1 28.8 48 3.2 -11.3407
980 1 30.4 46.4 4.8 -11.504
1013 3 32 48 3.2 -10.9895
982 1 33.6 46.4 4.8 -11.6343
1015 1 35.2 48 3.2 -11.4336
984 1 36.8 46.4 4.8 -11.6824
1017 3 38.4 48 3.2 -11.1255
986 1 40 46.4 4.8 -11.6286
1019 3 41.6 48 3.2 -10.8994
988 1 43.2 46.4 4.8 -11.4442
1021 2 44.8 48 3.2 -9.38889
990 1 46.4 46.4 4.8 -11.3326
1023 1 48 48 3.2 -11.3189
992 1 49.6 46.4 4.8 -11.4746
994 1 1.6 49.6 4.8 -11.7811
996 1 4.8 49.6 4.8 -11.7831
998 1 8 49.6 4.8 -11.7528
1000 1 11.2 49.6 4.8 -11.7124
1002 1 14.4 49.6 4.8 -11.4322
1004 3 17.6 49.6 4.8 -10.8992
1006 3 20.8 49.6 4.8 -11.166
1008 2 24 49.6 4.8 -9.66195
1010 1 27.2 49.6 4.8 -11.3111
1012 1 30.4 49.6 4.8 -11.5519
1014 1 33.6 49.6 4.8 -11.6876
1016 1 36.8 49.6 4.8 -11.7451
1018 1 40 49.6 4.8 -11.6179
1020 1 43.2 49.6 4.8 -11.3842
1022 1 46.4 49.6 4.8 -11.229
1024 1 49.6 49.6 4.8 -11.4527
1025 3 0 0 6.4 -10.9985
1026 1 1.6 1.6 8 -11.5071
1027 3 3.2 0 6.4 -11.1681
1028 1 4.8 1.6 8 -11.6469
1029 3 6.4 0 6.4 -11.167
1030 1 8 1.6 8 -11.6597
1031 3 9.6 0 6.4 -11.0403
1032 1 11.2 1.6 8 -11.4511
1033 2 12.8 0 6.4 -9.50731
1034 1 14.4 1.6 8 -11.2236
1035 1 16 0 6.4 -11.3293
1036 2 17.6 1.6 8 -9.44831
1037 1 19.2 0 6.4 -11.6753
1038 3 20.8 1.6 8 -11.0843
1039 1 22.4 0 6.4 -11.7242
1040 2 24 1.6 8 -9.56461
1041 1 25.6 0 6.4 -11.4228
1042 1 27.2 1.6 8 -11.3511
1043 2 28.8 0 6.4 -9.39897
1044 2 30.4 1.6 8 -9.4969
1045 2 32 0 6.4 -9.56491
1046 1 33.6 1.6 8 -11.4851
1047 3 35.2 0 6.4 -11.1685
1048 1 36.8 1.6 8 -11.6466
1049 3 38.4 0 6.4 -11.0852
1050 1 40 1.6 8 -11.4924
1051 2 41.6 0 6.4 -9.57043
1052 2 43.2 1.6 8 -9.66564
1053 1 44.8 0 6.4 -11.5463
1054 3 46.4 1.6 8 -10.9509
1055 1 48 0 6.4 -11.4634
1056 2 49.6 1.6 8 -9.50125
1057 1 0 3.2 6.4 -11.4033
1058 1 1.6 4.8 8 -11.3541
1059 2 3.2 3.2 6.4 -9.50528
1060 1 4.8 4.8 8 -11.4858
1061 3 6.4 3.2 6.4 -11.1274
1062 1 8 4.8 8 -11.6236
1063 2 9.6 3.2 6.4 -9.58652
1064 1 11.2 4.8 8 -11.4502
1065 2 12.8 3.2 6.4 -9.43394
1066 1 14.4 4.8 8 -11.2869
1067 1 16 3.2 6.4 -11.2722
1068 1 17.6 4.8 8 -11.23
1069 1 19.2 3.2 6.4 -11.5653
1070 3 20.8 4.8 8 -10.8507
1071 1 22.4 3.2 6.4 -11.7242
1072 2 24 4.8 8 -9.5685
1073 1 25.6 3.2 6.4 -11.4413
1074 1 27.2 4.8 8 -11.2768
1075 1 28.8 3.2 6.4 -11.371
1076 2 30.4 4.8 8 -9.36706
1077 1 32 3.2 6.4 -11.4336
1078 1 33.6 4.8 8 -11.3604
1079 2 35.2 3.2 6.4 -9.57312
1080 3 36.8 4.8 8 -10.9434
1081 1 38.4 3.2 6.4 -11.4871
1082 3 40 4.8 8 -11.0414
1083 1 41.6 3.2 6.4 -11.6179
1084 3 43.2 4.8 8 -11.083
1085 1 44.8 3.2 6.4 -11.7528
1086 3 46.4 4.8 8 -11.0859
1087 1 48 3.2 6.4 -11.4933
1088 2 49.6 4.8 8 -9.53604
1089 3 0 6.4 6.4 -10.9051
1090 1 1.6 8 8 -11.5487
1091 2 3.2 6.4 6.4 -9.58702
1092 1 4.8 8 8 -11.5882
1093 3 6.4 6.4 6.4 -11.0822
1094 1 8 8 8 -11.6336
1095 3 9.6 6.4 6.4 -11.1272
1096 1 11.2 8 8 -11.3428
1097 2 12.8 6.4 6.4 -9.4732
1098 1 14.4 8 8 -11.2888
1099 2 16 6.4 6.4 -9.35106
1100 1 17.6 8 8 -11.4019
1101 1 19.2 6.4 6.4 -11.3089
1102 1 20.8 8 8 -11.3632