ITEM: TIMESTEP
0
ITEM: NUMBER OF ATOMS
8192
ITEM: BOX BOUNDS pp pp pp
0.0000000000000000e+00 5.1200000000000003e+01
0.0000000000000000e+00 5.1200000000000003e+01
0.0000000000000000e+00 5.1200000000000003e+01
ITEM: ATOMS id type x y z c_eng
1 3 0 0 0 -11.1654
2 1 1.6 1.6 1.6 -11.8417
3 3 3.2 0 0 -11.1232
4 1 4.8 1.6 1.6 -11.8417
5 3 6.4 0 0 -11.0838
6 1 8 1.6 1.6 -11.6753
7 1 9.6 0 0 -11.1857
8 1 11.2 1.6 1.6 -11.6421
9 2 12.8 0 0 -9.41438
10 1 14.4 1.6 1.6 -11.4766
11 1 16 0 0 -11.5188
12 3 17.6 1.6 1.6 -10.9983
13 1 19.2 0 0 -11.7846
14 2 20.8 1.6 1.6 -9.70717
15 1 22.4 0 0 -11.7511
16 2 24 1.6 1.6 -9.61736
17 1 25.6 0 0 -11.6578
18 2 27.2 1.6 1.6 -9.53012
19 1 28.8 0 0 -11.474
20 1 30.4 1.6 1.6 -11.441
21 2 32 0 0 -9.50179
22 1 33.6 1.6 1.6 -11.3906
23 1 35.2 0 0 -11.3542
24 1 36.8 1.6 1.6 -11.2351
25 1 38.4 0 0 -11.307
26 1 40 1.6 1.6 -11.2166
27 1 41.6 0 0 -11.3276
28 2 43.2 1.6 1.6 -9.48251
29 1 44.8 0 0 -11.3926
30 2 46.4 1.6 1.6 -9.53573
31 2 48 0 0 -9.66269
32 1 49.6 1.6 1.6 -11.6941
33 3 0 3.2 0 -11.1657
34 1 1.6 4.8 1.6 -11.8124
35 3 3.2 3.2 0 -11.2057
36 1 4.8 4.8 1.6 -11.7811
37 3 6.4 3.2 0 -11.0367
38 1 8 4.8 1.6 -11.7583
39 2 9.6 3.2 0 -9.64769
40 1 11.2 4.8 1.6 -11.7846
41 3 12.8 3.2 0 -10.9976
42 1 14.4 4.8 1.6 -11.6503
43 1 16 3.2 0 -11.5424
44 2 17.6 4.8 1.6 -9.63376
45 1 19.2 3.2 0 -11.7843
46 3 20.8 4.8 1.6 -11.0838
47 1 22.4 3.2 0 -11.7511
48 3 24 4.8 1.6 -11.2051
49 1 25.6 3.2 0 -11.7187
50 3 27.2 4.8 1.6 -11.2068
51 1 28.8 3.2 0 -11.6444
52 3 30.4 4.8 1.6 -10.9574
53 1 32 3.2 0 -11.5894
54 2 33.6 4.8 1.6 -9.44842
55 1 35.2 3.2 0 -11.4183
56 1 36.8 4.8 1.6 -11.2249
57 1 38.4 3.2 0 -11.3635
58 1 40 4.8 1.6 -11.3296
59 1 41.6 3.2 0 -11.5623
60 2 43.2 4.8 1.6 -9.42054
61 1 44.8 3.2 0 -11.4902
62 1 46.4 4.8 1.6 -11.3517
63 2 48 3.2 0 -9.56461
64 1 49.6 4.8 1.6 -11.6749
65 3 0 6.4 0 -11.2057
66 1 1.6 8 1.6 -11.7831
67 2 3.2 6.4 0 -9.70694
68 1 4.8 8 1.6 -11.7208
69 2 6.4 6.4 0 -9.64625
70 1 8 8 1.6 -11.7245
71 3 9.6 6.4 0 -11.0823
72 1 11.2 8 1.6 -11.7831
73 3 12.8 6.4 0 -11.0844
74 1 14.4 8 1.6 -11.6469
75 3 16 6.4 0 -10.8914
76 1 17.6 8 1.6 -11.3394
77 1 19.2 6.4 0 -11.6079
78 2 20.8 8 1.6 -9.51334
79 1 22.4 6.4 0 -11.7811
80 3 24 8 1.6 -11.2051
81 1 25.6 6.4 0 -11.8124
82 3 27.2 8 1.6 -11.037
83 1 28.8 6.4 0 -11.5981
84 1 30.4 8 1.6 -11.1721
85 1 32 6.4 0 -11.4925
86 1 33.6 8 1.6 -11.2614
87 1 35.2 6.4 0 -11.4844
88 1 36.8 8 1.6 -11.208
89 1 38.4 6.4 0 -11.5276
90 2 40 8 1.6 -9.53062
91 1 41.6 6.4 0 -11.5982
92 1 43.2 8 1.6 -11.3843
93 1 44.8 6.4 0 -11.3976
94 1 46.4 8 1.6 -11.5125
95 3 48 6.4 0 -11.0799
96 1 49.6 8 1.6 -11.7508
97 3 0 9.6 0 -11.0866
98 1 1.6 11.2 1.6 -11.7532
99 3 3.2 9.6 0 -11.084
100 1 4.8 11.2 1.6 -11.7532
101 2 6.4 9.6 0 -9.58587
102 1 8 11.2 1.6 -11.7811
103 3 9.6 9.6 0 -11.1684
104 1 11.2 11.2 1.6 -11.7508
105 2 12.8 9.6 0 -9.59658
106 1 14.4 11.2 1.6 -11.5234
107 1 16 9.6 0 -11.3654
108 1 17.6 11.2 1.6 -11.372
109 1 19.2 9.6 0 -11.4354
110 3 20.8 11.2 1.6 -10.9006
111 1 22.4 9.6 0 -11.7511
112 3 24 11.2 1.6 -11.083
113 1 25.6 9.6 0 -11.7508
114 2 27.2 11.2 1.6 -9.67113
115 1 28.8 9.6 0 -11.3538
116 1 30.4 11.2 1.6 -11.3751
117 1 32 9.6 0 -11.2927
118 3 33.6 11.2 1.6 -10.7428
119 1 35.2 9.6 0 -11.5251
120 1 36.8 11.2 1.6 -11.2542
121 1 38.4 9.6 0 -11.5355
122 2 40 11.2 1.6 -9.37267
123 1 41.6 9.6 0 -11.499
124 1 43.2 11.2 1.6 -11.4256
125 1 44.8 9.6 0 -11.4832
126 1 46.4 11.2 1.6 -11.651
127 3 48 9.6 0 -11.1226
128 1 49.6 11.2 1.6 -11.7508
129 3 0 12.8 0 -11.0435
130 1 1.6 14.4 1.6 -11.7846
131 2 3.2 12.8 0 -9.64734
132 1 4.8 14.4 1.6 -11.7831
133 3 6.4 12.8 0 -11.1668
134 1 8 14.4 1.6 -11.7511
135 3 9.6 12.8 0 -11.1255
136 1 11.2 14.4 1.6 -11.5809
137 2 12.8 12.8 0 -9.53043
138 1 14.4 14.4 1.6 -11.4737
139 1 16 12.8 0 -11.4602
140 1 17.6 14.4 1.6 -11.3611
141 1 19.2 12.8 0 -11.4453
142 1 20.8 14.4 1.6 -11.4078
143 1 22.4 12.8 0 -11.5811
144 1 24 14.4 1.6 -11.4748
145 1 25.6 12.8 0 -11.5736
146 1 27.2 14.4 1.6 -11.4893
147 2 28.8 12.8 0 -9.4964
148 1 30.4 14.4 1.6 -11.5182
149 1 32 12.8 0 -11.3675
150 1 33.6 14.4 1.6 -11.4343
151 1 35.2 12.8 0 -11.4758
152 1 36.8 14.4 1.6 -11.2857
153 1 38.4 12.8 0 -11.4829
154 1 40 14.4 1.6 -11.3854
155 1 41.6 12.8 0 -11.5515
156 1 43.2 14.4 1.6 -11.4766
157 1 44.8 12.8 0 -11.5152
158 1 46.4 14.4 1.6 -11.5523
159 3 48 12.8 0 -11.0357
160 1 49.6 14.4 1.6 -11.6806
161 3 0 16 0 -10.993
162 1 1.6 17.6 1.6 -11.8417
163 3 3.2 16 0 -11.0827
164 1 4.8 17.6 1.6 -11.7811
165 3 6.4 16 0 -11.126
166 1 8 17.6 1.6 -11.6913
167 2 9.6 16 0 -9.54473
168 1 11.2 17.6 1.6 -11.5118
169 1 12.8 16 0 -11.3792
170 2 14.4 17.6 1.6 -9.40434
171 1 16 16 0 -11.3445
172 1 17.6 17.6 1.6 -11.4902
173 2 19.2 16 0 -9.53624
174 1 20.8 17.6 1.6 -11.7511
175 3 22.4 16 0 -10.9972
176 1 24 17.6 1.6 -11.6891
177 2 25.6 16 0 -9.56843
178 1 27.2 17.6 1.6 -11.5205
179 2 28.8 16 0 -9.47701
180 1 30.4 17.6 1.6 -11.5508
181 2 32 16 0 -9.40472
182 1 33.6 17.6 1.6 -11.6309
183 1 35.2 16 0 -11.4095
184 1 36.8 17.6 1.6 -11.3703
185 1 38.4 16 0 -11.4423
186 1 40 17.6 1.6 -11.3251
187 1 41.6 16 0 -11.4766
188 1 43.2 17.6 1.6 -11.552
189 1 44.8 16 0 -11.5101
190 1 46.4 17.6 1.6 -11.6671
191 1 48 16 0 -11.464
192 1 49.6 17.6 1.6 -11.7091
193 3 0 19.2 0 -11.2083
194 1 1.6 20.8 1.6 -11.7089
195 3 3.2 19.2 0 -10.9919
196 1 4.8 20.8 1.6 -11.6355
197 3 6.4 19.2 0 -11.168
198 1 8 20.8 1.6 -11.4575
199 2 9.6 19.2 0 -9.51374
200 1 11.2 20.8 1.6 -11.3493
201 1 12.8 19.2 0 -11.3395
202 2 14.4 20.8 1.6 -9.48903
203 1 16 19.2 0 -11.3484
204 1 17.6 20.8 1.6 -11.343
205 3 19.2 19.2 0 -10.9504
206 1 20.8 20.8 1.6 -11.5515
207 3 22.4 19.2 0 -11.1674
208 1 24 20.8 1.6 -11.6175
209 2 25.6 19.2 0 -9.57906
210 1 27.2 20.8 1.6 -11.5867
211 1 28.8 19.2 0 -11.3517
212 1 30.4 20.8 1.6 -11.4391
213 2 32 19.2 0 -9.43729
214 1 33.6 20.8 1.6 -11.4234
215 2 35.2 19.2 0 -9.53251
216 1 36.8 20.8 1.6 -11.3784
217 1 38.4 19.2 0 -11.2742
218 1 40 20.8 1.6 -11.2237
219 1 41.6 19.2 0 -11.3831
220 1 43.2 20.8 1.6 -11.25
221 3 44.8 19.2 0 -10.9338
222 1 46.4 20.8 1.6 -11.5624
223 3 48 19.2 0 -11.0868
224 1 49.6 20.8 1.6 -11.7811
225 3 0 22.4 0 -10.9978
226 1 1.6 24 1.6 -11.5129
227 1 3.2 22.4 0 -11.3396
228 2 4.8 24 1.6 -9.5465
229 3 6.4 22.4 0 -10.9055
230 1 8 24 1.6 -11.3355
231 1 9.6 22.4 0 -11.3232
232 2 11.2 24 1.6 -9.44457
233 1 12.8 22.4 0 -11.4644
234 3 14.4 24 1.6 -11.0846
235 1 16 22.4 0 -11.4979
236 3 17.6 24 1.6 -11.0392
237 1 19.2 22.4 0 -11.4686
238 2 20.8 24 1.6 -9.6005
239 2 22.4 22.4 0 -9.59657
240 1 24 24 1.6 -11.5538
241 3 25.6 22.4 0 -11.1252
242 1 27.2 24 1.6 -11.7511
243 3 28.8 22.4 0 -10.9436
244 1 30.4 24 1.6 -11.4966
245 1 32 22.4 0 -11.2924
246 1 33.6 24 1.6 -11.3321
247 2 35.2 22.4 0 -9.28642
248 1 36.8 24 1.6 -11.5014
249 1 38.4 22.4 0 -11.3494
250 1 40 24 1.6 -11.5485
251 1 41.6 22.4 0 -11.2221
252 1 43.2 24 1.6 -11.3548
253 1 44.8 22.4 0 -11.2279
254 1 46.4 24 1.6 -11.3595
255 2 48 22.4 0 -9.47359
256 1 49.6 24 1.6 -11.5005
257 2 0 25.6 0 -9.46128
259 1 3.2 25.6 0 -11.4891
261 2 6.4 25.6 0 -9.57443
263 2 9.6 25.6 0 -9.41784
265 1 12.8 25.6 0 -11.6311
267 1 16 25.6 0 -11.7532
269 1 19.2 25.6 0 -11.6856
271 2 22.4 25.6 0 -9.57084
273 3 25.6 25.6 0 -11.1258
275 3 28.8 25.6 0 -11.2455
277 3 32 25.6 0 -10.9035
279 3 35.2 25.6 0 -11.0005
281 3 38.4 25.6 0 -11.0433
283 2 41.6 25.6 0 -9.57365
285 2 44.8 25.6 0 -9.57354
287 2 48 25.6 0 -9.49401
258 2 1.6 27.2 1.6 -9.49021
289 1 0 28.8 0 -11.4289
260 2 4.8 27.2 1.6 -9.66731
291 1 3.2 28.8 0 -11.6964
262 1 8 27.2 1.6 -11.2758
293 1 6.4 28.8 0 -11.386
264 2 11.2 27.2 1.6 -9.48384
295 1 9.6 28.8 0 -11.3385
266 2 14.4 27.2 1.6 -9.57944
297 1 12.8 28.8 0 -11.5047
268 3 17.6 27.2 1.6 -11.2065
299 1 16 28.8 0 -11.6473
270 3 20.8 27.2 1.6 -11.1268
301 1 19.2 28.8 0 -11.7844
272 1 24 27.2 1.6 -11.4795
303 1 22.4 28.8 0 -11.5672
305 2 25.6 28.8 0 -9.59396
274 1 27.2 27.2 1.6 -11.7511
307 3 28.8 28.8 0 -11.0386
276 1 30.4 27.2 1.6 -11.5973
309 2 32 28.8 0 -9.57968
278 1 33.6 27.2 1.6 -11.447
311 2 35.2 28.8 0 -9.55044
280 1 36.8 27.2 1.6 -11.5664
313 3 38.4 28.8 0 -10.9496
282 1 40 27.2 1.6 -11.6474
315 1 41.6 28.8 0 -11.2877
284 1 43.2 27.2 1.6 -11.5822
317 2 44.8 28.8 0 -9.51943
286 1 46.4 27.2 1.6 -11.6255
319 2 48 28.8 0 -9.43824
288 1 49.6 27.2 1.6 -11.3752
290 2 1.6 30.4 1.6 -9.5062
321 1 0 32 0 -11.4179
292 3 4.8 30.4 1.6 -10.9968
323 1 3.2 32 0 -11.7245
294 1 8 30.4 1.6 -11.2852
325 1 6.4 32 0 -11.41
296 1 11.2 30.4 1.6 -11.3353
327 2 9.6 32 0 -9.49292
298 1 14.4 30.4 1.6 -11.2732
329 1 12.8 32 0 -11.4359
300 3 17.6 30.4 1.6 -11.0425
331 1 16 32 0 -11.4656
302 3 20.8 30.4 1.6 -10.9946
333 1 19.2 32 0 -11.6749
304 1 24 30.4 1.6 -11.3495
335 1 22.4 32 0 -11.5342
337 1 25.6 32 0 -11.3748
306 1 27.2 30.4 1.6 -11.6449
339 3 28.8 32 0 -11.0872
308 1 30.4 30.4 1.6 -11.6449
341 2 32 32 0 -9.69213
310 1 33.6 30.4 1.6 -11.3983
343 2 35.2 32 0 -9.52546
312 1 36.8 30.4 1.6 -11.467
345 2 38.4 32 0 -9.58073
314 1 40 30.4 1.6 -11.5981
347 3 41.6 32 0 -10.8569
316 1 43.2 30.4 1.6 -11.6217
349 2 44.8 32 0 -9.51398
318 1 46.4 30.4 1.6 -11.6108
351 1 48 32 0 -11.2617
320 1 49.6 30.4 1.6 -11.3517
322 3 1.6 33.6 1.6 -11.0411
353 1 0 35.2 0 -11.565
324 3 4.8 33.6 1.6 -11.0844
355 1 3.2 35.2 0 -11.6468
326 1 8 33.6 1.6 -11.3594
357 1 6.4 35.2 0 -11.4512
328 2 11.2 33.6 1.6 -9.53044
359 1 9.6 35.2 0 -11.426
330 2 14.4 33.6 1.6 -9.48852
361 1 12.8 35.2 0 -11.4332
332 3 17.6 33.6 1.6 -11.0242
363 1 16 35.2 0 -11.4295
334 3 20.8 33.6 1.6 -10.9018
365 1 19.2 35.2 0 -11.5187
336 1 24 33.6 1.6 -11.4298
367 1 22.4 35.2 0 -11.5449
369 2 25.6 35.2 0 -9.5832
338 1 27.2 33.6 1.6 -11.6471
371 3 28.8 35.2 0 -10.9949
340 1 30.4 33.6 1.6 -11.6597
373 2 32 35.2 0 -9.56767
342 2 33.6 33.6 1.6 -9.60954
375 1 35.2 35.2 0 -11.4089
344 1 36.8 33.6 1.6 -11.4088
377 1 38.4 35.2 0 -11.1888
346 1 40 33.6 1.6 -11.458
379 1 41.6 35.2 0 -11.2563
348 1 43.2 33.6 1.6 -11.5047
381 1 44.8 35.2 0 -11.1905
350 1 46.4 33.6 1.6 -11.3702
383 1 48 35.2 0 -11.3031
352 2 49.6 33.6 1.6 -9.48319
354 2 1.6 36.8 1.6 -9.54435
385 1 0 38.4 0 -11.4321
356 3 4.8 36.8 1.6 -11.0883
387 1 3.2 38.4 0 -11.506
358 1 8 36.8 1.6 -11.2221
389 1 6.4 38.4 0 -11.4509
360 1 11.2 36.8 1.6 -11.2243
391 1 9.6 38.4 0 -11.226
362 1 14.4 36.8 1.6 -11.3801
393 1 12.8 38.4 0 -11.3947
364 1 17.6 36.8 1.6 -11.3493
395 1 16 38.4 0 -11.3875
366 2 20.8 36.8 1.6 -9.43932
397 1 19.2 38.4 0 -11.3983
368 2 24 36.8 1.6 -9.50078
399 1 22.4 38.4 0 -11.5291
401 1 25.6 38.4 0 -11.3156
370 1 27.2 36.8 1.6 -11.4953
403 1 28.8 38.4 0 -11.213
372 1 30.4 36.8 1.6 -11.2773
405 1 32 38.4 0 -11.2772
374 2 33.6 36.8 1.6 -9.45529
407 1 35.2 38.4 0 -11.5222
376 3 36.8 36.8 1.6 -10.8985
409 1 38.4 38.4 0 -11.4019
378 2 40 36.8 1.6 -9.4817
411 1 41.6 38.4 0 -11.3231
380 1 43.2 36.8 1.6 -11.443
413 2 44.8 38.4 0 -9.40389
382 1 46.4 36.8 1.6 -11.3397
415 1 48 38.4 0 -11.3465
384 3 49.6 36.8 1.6 -10.9032
386 1 1.6 40 1.6 -11.3514
417 2 0 41.6 0 -9.53639
388 3 4.8 40 1.6 -10.8595
419 1 3.2 41.6 0 -11.4357
390 1 8 40 1.6 -11.117
421 1 6.4 41.6 0 -11.4007
392 2 11.2 40 1.6 -9.38902
423 1 9.6 41.6 0 -11.3712
394 3 14.4 40 1.6 -10.9678
425 1 12.8 41.6 0 -11.5886
396 1 17.6 40 1.6 -11.3145
427 1 16 41.6 0 -11.5476
398 2 20.8 40 1.6 -9.5805
429 1 19.2 41.6 0 -11.53
400 3 24 40 1.6 -10.9078
431 1 22.4 41.6 0 -11.6819
433 1 25.6 41.6 0 -11.4899
402 3 27.2 40 1.6 -10.8879
435 1 28.8 41.6 0 -11.4083
404 1 30.4 40 1.6 -11.3598
437 2 32 41.6 0 -9.55564
406 2 33.6 40 1.6 -9.63892
439 2 35.2 41.6 0 -9.60146
408 3 36.8 40 1.6 -10.9931
441 1 38.4 41.6 0 -11.3823
410 1 40 40 1.6 -11.3942
443 3 41.6 41.6 0 -10.9444
412 1 43.2 40 1.6 -11.6182
445 3 44.8 41.6 0 -11.0827
414 1 46.4 40 1.6 -11.4858
447 1 48 41.6 0 -11.3739
416 2 49.6 40 1.6 -9.56194
418 1 1.6 43.2 1.6 -11.5185
449 3 0 44.8 0 -11.1666
420 2 4.8 43.2 1.6 -9.45248
451 2 3.2 44.8 0 -9.52306
422 2 8 43.2 1.6 -9.36679
453 1 6.4 44.8 0 -11.3523
424 3 11.2 43.2 1.6 -11.0424
455 1 9.6 44.8 0 -11.4179
426 3 14.4 43.2 1.6 -11.2389
457 1 12.8 44.8 0 -11.7524
428 3 17.6 43.2 1.6 -11.1228
459 1 16 44.8 0 -11.7505
430 3 20.8 43.2 1.6 -11.2054
461 1 19.2 44.8 0 -11.7811
432 3 24 43.2 1.6 -11.1671
463 1 22.4 44.8 0 -11.8124
465 1 25.6 44.8 0 -11.663
434 2 27.2 43.2 1.6 -9.72519
467 2 28.8 44.8 0 -9.68214
436 1 30.4 43.2 1.6 -11.6579
469 3 32 44.8 0 -11.0416
438 1 33.6 43.2 1.6 -11.5466
471 2 35.2 44.8 0 -9.5876
440 1 36.8 43.2 1.6 -11.44
473 3 38.4 44.8 0 -10.9968
442 1 40 43.2 1.6 -11.5973
475 3 41.6 44.8 0 -11.2062
444 1 43.2 43.2 1.6 -11.8124
477 3 44.8 44.8 0 -11.206
446 1 46.4 43.2 1.6 -11.7093
479 3 48 44.8 0 -11.0807
448 1 49.6 43.2 1.6 -11.7201
450 1 1.6 46.4 1.6 -11.7093
481 3 0 48 0 -11.2426
452 1 4.8 46.4 1.6 -11.5522
483 3 3.2 48 0 -11.1666
454 1 8 46.4 1.6 -11.3124
485 3 6.4 48 0 -10.9462
456 2 11.2 46.4 1.6 -9.55676
487 1 9.6 48 0 -11.2303
458 3 14.4 46.4 1.6 -11.1664
489 1 12.8 48 0 -11.5934
460 3 17.6 46.4 1.6 -11.1654
491 1 16 48 0 -11.6468
462 3 20.8 46.4 1.6 -11.2039
493 1 19.2 48 0 -11.7846
464 2 24 46.4 1.6 -9.70717
495 1 22.4 48 0 -11.8124
497 1 25.6 48 0 -11.6893
466 2 27.2 46.4 1.6 -9.66492
499 1 28.8 48 0 -11.4212
468 1 30.4 46.4 1.6 -11.5891
501 3 32 48 0 -10.902
470 1 33.6 46.4 1.6 -11.532
503 3 35.2 48 0 -10.7535
472 1 36.8 46.4 1.6 -11.5739
505 2 38.4 48 0 -9.50671
474 1 40 46.4 1.6 -11.7811
507 2 41.6 48 0 -9.50659
476 1 43.2 46.4 1.6 -11.7846
509 3 44.8 48 0 -10.8994
478 1 46.4 46.4 1.6 -11.8124
511 3 48 48 0 -11.206
480 1 49.6 46.4 1.6 -11.8417
482 1 1.6 49.6 1.6 -11.8417
484 1 4.8 49.6 1.6 -11.8417
486 1 8 49.6 1.6 -11.4844
488 1 11.2 49.6 1.6 -11.4057
490 1 14.4 49.6 1.6 -11.4663
492 2 17.6 49.6 1.6 -9.64734
494 3 20.8 49.6 1.6 -11.1645
496 3 24 49.6 1.6 -11.0832
498 2 27.2 49.6 1.6 -9.5264
500 1 30.4 49.6 1.6 -11.4864
502 1 33.6 49.6 1.6 -11.5896
504 1 36.8 49.6 1.6 -11.5141
506 1 40 49.6 1.6 -11.4588
508 1 43.2 49.6 1.6 -11.4121
510 1 46.4 49.6 1.6 -11.5888
512 1 49.6 49.6 1.6 -11.7808
513 3 0 0 3.2 -11.2054
514 1 1.6 1.6 4.8 -11.7447
515 3 3.2 0 3.2 -11.242
516 1 4.8 1.6 4.8 -11.8124
517 3 6.4 0 3.2 -11.1657
518 1 8 1.6 4.8 -11.7846
519 2 9.6 0 3.2 -9.54355
520 1 11.2 1.6 4.8 -11.7831
521 3 12.8 0 3.2 -11.0451
522 1 14.4 1.6 4.8 -11.4783
523 1 16 0 3.2 -11.477
524 3 17.6 1.6 4.8 -10.9469
525 1 19.2 0 3.2 -11.7846
526 3 20.8 1.6 4.8 -11.0829
527 1 22.4 0 3.2 -11.7208
528 2 24 1.6 4.8 -9.5455
529 1 25.6 0 3.2 -11.5252
530 1 27.2 1.6 4.8 -11.3623
531 2 28.8 0 3.2 -9.50194
532 1 30.4 1.6 4.8 -11.4762
533 3 32 0 3.2 -10.9993
534 1 33.6 1.6 4.8 -11.5821
535 3 35.2 0 3.2 -10.8581
536 1 36.8 1.6 4.8 -11.5516
537 3 38.4 0 3.2 -10.8475
538 1 40 1.6 4.8 -11.3481
539 1 41.6 0 3.2 -11.3926
540 3 43.2 1.6 4.8 -10.9024
541 1 44.8 0 3.2 -11.4519
542 3 46.4 1.6 4.8 -11.0297
543 2 48 0 3.2 -9.70342
544 1 49.6 1.6 4.8 -11.566
545 3 0 3.2 3.2 -10.9911
546 1 1.6 4.8 4.8 -11.7602
547 3 3.2 3.2 3.2 -11.2429
548 1 4.8 4.8 4.8 -11.8122
549 3 6.4 3.2 3.2 -11.2429
550 1 8 4.8 4.8 -11.8124
551 3 9.6 3.2 3.2 -11.1248
552 1 11.2 4.8 4.8 -11.7831
553 3 12.8 3.2 3.2 -11.0836
554 1 14.4 4.8 4.8 -11.5297
555 1 16 3.2 3.2 -11.4235
556 1 17.6 4.8 4.8 -11.3799
557 1 19.2 3.2 3.2 -11.6475
558 2 20.8 4.8 4.8 -9.54449
559 1 22.4 3.2 3.2 -11.7245
560 3 24 4.8 4.8 -11.1263
561 1 25.6 3.2 3.2 -11.6449
562 3 27.2 4.8 4.8 -10.993
563 1 28.8 3.2 3.2 -11.5515
564 3 30.4 4.8 4.8 -11.0865
565 1 32 3.2 3.2 -11.4766
566 3 33.6 4.8 4.8 -10.9989
567 1 35.2 3.2 3.2 -11.3699
568 2 36.8 4.8 4.8 -9.56715
569 1 38.4 3.2 3.2 -11.1569
570 1 40 4.8 4.8 -11.3351
571 1 41.6 3.2 3.2 -11.3173
572 1 43.2 4.8 4.8 -11.306
573 1 44.8 3.2 3.2 -11.4213
574 1 46.4 4.8 4.8 -11.1942
575 1 48 3.2 3.2 -11.4058
576 1 49.6 4.8 4.8 -11.448
577 3 0 6.4 3.2 -11.168
578 1 1.6 8 4.8 -11.6843
579 3 3.2 6.4 3.2 -11.1658
580 1 4.8 8 4.8 -11.7831
581 3 6.4 6.4 3.2 -11.1232
582 1 8 8 4.8 -11.7846
583 2 9.6 6.4 3.2 -9.73533
584 1 11.2 8 4.8 -11.7151
585 3 12.8 6.4 3.2 -11.1678
586 1 14.4 8 4.8 -11.6221
587 2 16 6.4 3.2 -9.56218
588 1 17.6 8 4.8 -11.451
589 1 19.2 6.4 3.2 -11.3686
590 1 20.8 8 4.8 -11.3603
591 1 22.4 6.4 3.2 -11.6753
592 3 24 8 4.8 -10.9928
593 1 25.6 6.4 3.2 -11.8417
594 3 27.2 8 4.8 -11.1272
595 1 28.8 6.4 3.2 -11.7451
596 3 30.4 8 4.8 -10.9574
597 1 32 6.4 3.2 -11.5981
598 3 33.6 8 4.8 -10.9915
599 1 35.2 6.4 3.2 -11.4768
600 2 36.8 8 4.8 -9.61117
601 2 38.4 6.4 3.2 -9.53335
602 2 40 8 4.8 -9.56859
603 3 41.6 6.4 3.2 -10.7793
604 1 43.2 8 4.8 -11.4002
605 1 44.8 6.4 3.2 -11.2608
606 1 46.4 8 4.8 -11.449
607 2 48 6.4 3.2 -9.38821
608 1 49.6 8 4.8 -11.519
609 2 0 9.6 3.2 -9.5784
610 1 1.6 11.2 4.8 -11.6454
611 3 3.2 9.6 3.2 -11.1673
612 1 4.8 11.2 4.8 -11.7846
613 2 6.4 9.6 3.2 -9.70694
614 1 8 11.2 4.8 -11.7532
615 3 9.6 9.6 3.2 -11.1657
616 1 11.2 11.2 4.8 -11.5673
617 3 12.8 9.6 3.2 -10.9958
618 1 14.4 11.2 4.8 -11.5243
619 2 16 9.6 3.2 -9.55916
620 3 17.6 11.2 4.8 -11.0457
621 1 19.2 9.6 3.2 -11.498
622 3 20.8 11.2 4.8 -11.0005
623 1 22.4 9.6 3.2 -11.7091
624 3 24 11.2 4.8 -10.9961
625 1 25.6 9.6 3.2 -11.8122
626 3 27.2 11.2 4.8 -10.9919
627 1 28.8 9.6 3.2 -11.6099
628 2 30.4 11.2 4.8 -9.67178
629 1 32 9.6 3.2 -11.4558
630 1 33.6 11.2 4.8 -11.5693
631 1 35.2 9.6 3.2 -11.3871
632 1 36.8 11.2 4.8 -11.2431
633 1 38.4 9.6 3.2 -11.309
634 1 40 11.2 4.8 -11.1937
635 1 41.6 9.6 3.2 -11.427
636 1 43.2 11.2 4.8 -11.4531
637 3 44.8 9.6 3.2 -10.7447
638 1 46.4 11.2 4.8 -11.7508
639 2 48 9.6 3.2 -9.64669
640 1 49.6 11.2 4.8 -11.5829
641 2 0 12.8 3.2 -9.67735
642 1 1.6 14.4 4.8 -11.7811
643 3 3.2 12.8 3.2 -11.1651
644 1 4.8 14.4 4.8 -11.6749
645 3 6.4 12.8 3.2 -11.1257
646 1 8 14.4 4.8 -11.4958
647 3 9.6 12.8 3.2 -11.1258
648 1 11.2 14.4 4.8 -11.467
649 2 12.8 12.8 3.2 -9.55093
650 1 14.4 14.4 4.8 -11.5351
651 2 16 12.8 3.2 -9.5236
652 1 17.6 14.4 4.8 -11.5538
653 1 19.2 12.8 3.2 -11.4244
654 1 20.8 14.4 4.8 -11.4438
655 1 22.4 12.8 3.2 -11.4717
656 1 24 14.4 4.8 -11.4103
657 1 25.6 12.8 3.2 -11.4891
658 1 27.2 14.4 4.8 -11.4507
659 2 28.8 12.8 3.2 -9.60228
660 1 30.4 14.4 4.8 -11.5663
661 2 32 12.8 3.2 -9.61429
662 1 33.6 14.4 4.8 -11.4319
663 2 35.2 12.8 3.2 -9.36735
664 1 36.8 14.4 4.8 -11.3349
665 1 38.4 12.8 3.2 -11.196
666 1 40 14.4 4.8 -11.3825
667 2 41.6 12.8 3.2 -9.41422
668 1 43.2 14.4 4.8 -11.6753
669 3 44.8 12.8 3.2 -11.0846
670 1 46.4 14.4 4.8 -11.8124
671 3 48 12.8 3.2 -11.1262
672 1 49.6 14.4 4.8 -11.7532
673 3 0 16 3.2 -11.1651
674 1 1.6 17.6 4.8 -11.7093
675 3 3.2 16 3.2 -11.206
676 1 4.8 17.6 4.8 -11.5213
677 2 6.4 16 3.2 -9.57906
678 1 8 17.6 4.8 -11.443
679 2 9.6 16 3.2 -9.66991
680 3 11.2 17.6 4.8 -10.9695
681 2 12.8 16 3.2 -9.60594
682 2 14.4 17.6 4.8 -9.63545
683 2 16 16 3.2 -9.56349
684 1 17.6 17.6 4.8 -11.5623
685 2 19.2 16 3.2 -9.54599
686 1 20.8 17.6 4.8 -11.723
687 2 22.4 16 3.2 -9.58266
688 1 24 17.6 4.8 -11.6972
689 2 25.6 16 3.2 -9.47638
690 1 27.2 17.6 4.8 -11.6279
691 2 28.8 16 3.2 -9.54932
692 1 30.4 17.6 4.8 -11.6582
693 2 32 16 3.2 -9.58355
694 1 33.6 17.6 4.8 -11.6454
695 2 35.2 16 3.2 -9.44932
696 1 36.8 17.6 4.8 -11.5451
697 2 38.4 16 3.2 -9.36667
698 1 40 17.6 4.8 -11.5892
699 3 41.6 16 3.2 -10.9519
700 1 43.2 17.6 4.8 -11.7511
701 3 44.8 16 3.2 -11.083
702 1 46.4 17.6 4.8 -11.8124
703 2 48 16 3.2 -9.64673
704 1 49.6 17.6 4.8 -11.7831
705 3 0 19.2 3.2 -11.2051
706 1 1.6 20.8 4.8 -11.6021
707 3 3.2 19.2 3.2 -11.0389
708 1 4.8 20.8 4.8 -11.3866
709 2 6.4 19.2 3.2 -9.51413
710 1 8 20.8 4.8 -11.2773
711 3 9.6 19.2 3.2 -10.9793
712 3 11.2 20.8 4.8 -11.0842
713 1 12.8 19.2 3.2 -11.6421
714 3 14.4 20.8 4.8 -10.9008
715 1 16 19.2 3.2 -11.4607
716 1 17.6 20.8 4.8 -11.3396
717 3 19.2 19.2 3.2 -10.9013
718 1 20.8 20.8 4.8 -11.4456
719 3 22.4 19.2 3.2 -10.996
720 1 24 20.8 4.8 -11.5378
721 2 25.6 19.2 3.2 -9.61575
722 1 27.2 20.8 4.8 -11.6582
723 2 28.8 19.2 3.2 -9.514
724 1 30.4 20.8 4.8 -11.5054
725 3 32 19.2 3.2 -10.9978
726 1 33.6 20.8 4.8 -11.4757
727 3 35.2 19.2 3.2 -10.9006
728 1 36.8 20.8 4.8 -11.542
729 1 38.4 19.2 3.2 -11.3219
730 1 40 20.8 4.8 -11.5961
731 2 41.6 19.2 3.2 -9.38806
732 1 43.2 20.8 4.8 -11.5388
733 3 44.8 19.2 3.2 -11.0841
734 1 46.4 20.8 4.8 -11.6454
735 3 48 19.2 3.2 -11.1676
736 1 49.6 20.8 4.8 -11.7528
737 3 0 22.4 3.2 -11.1249
738 2 1.6 24 4.8 -9.6319
739 2 3.2 22.4 3.2 -9.57412
740 2 4.8 24 4.8 -9.52018
741 1 6.4 22.4 3.2 -11.2947
742 1 8 24 4.8 -11.1502
743 1 9.6 22.4 3.2 -11.3067
744 2 11.2 24 4.8 -9.58039
745 1 12.8 22.4 3.2 -11.6471
746 3 14.4 24 4.8 -11.0394
747 1 16 22.4 3.2 -11.5973
748 3 17.6 24 4.8 -10.9949
749 1 19.2 22.4 3.2 -11.4775
750 3 20.8 24 4.8 -10.9421
751 1 22.4 22.4 3.2 -11.3586
752 1 24 24 4.8 -11.5252
753 2 25.6 22.4 3.2 -9.55262
754 1 27.2 24 4.8 -11.6606
755 2 28.8 22.4 3.2 -9.55069
756 1 30.4 24 4.8 -11.4602
757 1 32 22.4 3.2 -11.1515
758 2 33.6 24 4.8 -9.35591
759 1 35.2 22.4 3.2 -11.2627
760 1 36.8 24 4.8 -11.5276
761 3 38.4 22.4 3.2 -10.6932
762 1 40 24 4.8 -11.7151
763 1 41.6 22.4 3.2 -11.2519
764 1 43.2 24 4.8 -11.5673
765 1 44.8 22.4 3.2 -11.1831
766 1 46.4 24 4.8 -11.5162
767 2 48 22.4 3.2 -9.46723
768 1 49.6 24 4.8 -11.5133
769 1 0 25.6 3.2 -11.3274
771 1 3.2 25.6 3.2 -11.6009
773 1 6.4 25.6 3.2 -11.44
775 1 9.6 25.6 3.2 -11.4104
777 1 12.8 25.6 3.2 -11.6571
779 1 16 25.6 3.2 -11.7808
781 1 19.2 25.6 3.2 -11.8119
783 1 22.4 25.6 3.2 -11.5508
785 2 25.6 25.6 3.2 -9.54499
787 3 28.8 25.6 3.2 -10.9958
789 1 32 25.6 3.2 -11.3824
791 1 35.2 25.6 3.2 -11.3811
793 3 38.4 25.6 3.2 -11.0394
795 3 41.6 25.6 3.2 -10.9963
797 2 44.8 25.6 3.2 -9.50581
799 1 48 25.6 3.2 -11.2893
770 2 1.6 27.2 4.8 -9.52635
801 1 0 28.8 3.2 -11.3507
772 3 4.8 27.2 4.8 -11.0413
803 1 3.2 28.8 3.2 -11.615
774 2 8 27.2 4.8 -9.54913
805 1 6.4 28.8 3.2 -11.5297
776 2 11.2 27.2 4.8 -9.60495
807 1 9.6 28.8 3.2 -11.4047
778 2 14.4 27.2 4.8 -9.6748
809 1 12.8 28.8 3.2 -11.3377
780 3 17.6 27.2 4.8 -11.0432
811 1 16 28.8 3.2 -11.57
782 3 20.8 27.2 4.8 -10.9896
813 1 19.2 28.8 3.2 -11.6286
784 1 24 27.2 4.8 -11.5248
815 1 22.4 28.8 3.2 -11.3658
817 2 25.6 28.8 3.2 -9.54575
786 1 27.2 27.2 4.8 -11.7208
819 3 28.8 28.8 3.2 -11.0864
788 1 30.4 27.2 4.8 -11.6196
821 1 32 28.8 3.2 -11.3328
790 3 33.6 27.2 4.8 -10.8588
823 1 35.2 28.8 3.2 -11.2329
792 1 36.8 27.2 4.8 -11.5555
825 2 38.4 28.8 3.2 -9.55056
794 1 40 27.2 4.8 -11.6897
827 2 41.6 28.8 3.2 -9.54941
796 1 43.2 27.2 4.8 -11.7245
829 3 44.8 28.8 3.2 -11.084
798 1 46.4 27.2 4.8 -11.681
831 3 48 28.8 3.2 -10.9001
800 1 49.6 27.2 4.8 -11.4548
802 1 1.6 30.4 4.8 -11.3455
833 1 0 32 3.2 -11.4395
804 3 4.8 30.4 4.8 -11.0877
835 1 3.2 32 3.2 -11.6753
806 2 8 30.4 4.8 -9.6382
837 1 6.4 32 3.2 -11.5825
808 1 11.2 30.4 4.8 -11.5193
839 3 9.6 32 3.2 -10.8936
810 1 14.4 30.4 4.8 -11.4685
841 1 12.8 32 3.2 -11.3069
812 1 17.6 30.4 4.8 -11.4879
843 2 16 32 3.2 -9.62605
814 1 20.8 30.4 4.8 -11.3403
845 1 19.2 32 3.2 -11.5139
816 1 24 30.4 4.8 -11.4584
847 1 22.4 32 3.2 -11.3461
849 2 25.6 32 3.2 -9.50569
818 1 27.2 30.4 4.8 -11.7811
851 3 28.8 32 3.2 -11.1268
820 1 30.4 30.4 4.8 -11.6736
853 2 32 32 3.2 -9.60561
822 1 33.6 30.4 4.8 -11.4925
855 1 35.2 32 3.2 -11.386
824 1 36.8 30.4 4.8 -11.4405
857 2 38.4 32 3.2 -9.52758
826 1 40 30.4 4.8 -11.6578
859 2 41.6 32 3.2 -9.6494
828 1 43.2 30.4 4.8 -11.7208
861 3 44.8 32 3.2 -11.0851
830 1 46.4 30.4 4.8 -11.7828
863 2 48 32 3.2 -9.60026
832 1 49.6 30.4 4.8 -11.5049
834 2 1.6 33.6 4.8 -9.57956
865 1 0 35.2 3.2 -11.6968
836 3 4.8 33.6 4.8 -11.0424
867 1 3.2 35.2 3.2 -11.7846
838 1 8 33.6 4.8 -11.4292
869 1 6.4 35.2 3.2 -11.5526
840 1 11.2 33.6 4.8 -11.4883
871 2 9.6 35.2 3.2 -9.38559
842 1 14.4 33.6 4.8 -11.6193
873 1 12.8 35.2 3.2 -11.3437
844 1 17.6 33.6 4.8 -11.642
875 3 16 35.2 3.2 -10.9838
846 1 20.8 33.6 4.8 -11.4487
877 1 19.2 35.2 3.2 -11.4444
848 1 24 33.6 4.8 -11.5643
879 1 22.4 35.2 3.2 -11.3873
881 3 25.6 35.2 3.2 -10.9526
850 1 27.2 33.6 4.8 -11.7846
883 2 28.8 35.2 3.2 -9.54499
852 1 30.4 33.6 4.8 -11.705
885 1 32 35.2 3.2 -11.4469
854 3 33.6 33.6 4.8 -11.0568
887 1 35.2 35.2 3.2 -11.5451
856 2 36.8 33.6 4.8 -9.63387
889 1 38.4 35.2 3.2 -11.5701
858 1 40 33.6 4.8 -11.5661
891 2 41.6 35.2 3.2 -9.59375
860 1 43.2 33.6 4.8 -11.5921
893 2 44.8 35.2 3.2 -9.53296
862 1 46.4 33.6 4.8 -11.568
895 1 48 35.2 3.2 -11.512
864 2 49.6 33.6 4.8 -9.53217
866 3 1.6 36.8 4.8 -10.9958
897 1 0 38.4 3.2 -11.5885
868 3 4.8 36.8 4.8 -11.1691
899 1 3.2 38.4 3.2 -11.5643
870 2 8 36.8 4.8 -9.37268
901 1 6.4 38.4 3.2 -11.4512
872 1 11.2 36.8 4.8 -11.2848
903 1 9.6 38.4 3.2 -11.2517
874 1 14.4 36.8 4.8 -11.4733
905 1 12.8 38.4 3.2 -11.3725
876 1 17.6 36.8 4.8 -11.4584
907 2 16 38.4 3.2 -9.53094
878 1 20.8 36.8 4.8 -11.3809
909 1 19.2 38.4 3.2 -11.3553
880 1 24 36.8 4.8 -11.3082
911 1 22.4 38.4 3.2 -11.4346
913 1 25.6 38.4 3.2 -11.4733
882 1 27.2 36.8 4.8 -11.4784
915 1 28.8 38.4 3.2 -11.2789
884 1 30.4 36.8 4.8 -11.2973
917 1 32 38.4 3.2 -11.3152
886 1 33.6 36.8 4.8 -11.4674
919 1 35.2 38.4 3.2 -11.6438
888 3 36.8 36.8 4.8 -11.0841
921 1 38.4 38.4 3.2 -11.6509
890 3 40 36.8 4.8 -11.0282
923 2 41.6 38.4 3.2 -9.59426
892 2 43.2 36.8 4.8 -9.6713
925 2 44.8 38.4 3.2 -9.60409
894 2 46.4 36.8 4.8 -9.41371
927 1 48 38.4 3.2 -11.5112
896 2 49.6 36.8 4.8 -9.61683
898 1 1.6 40 4.8 -11.3701
929 3 0 41.6 3.2 -10.9308
900 2 4.8 40 4.8 -9.57583
931 1 3.2 41.6 3.2 -11.4617
902 1 8 40 4.8 -11.25
933 1 6.4 41.6 3.2 -11.5191
904 2 11.2 40 4.8 -9.43381
935 1 9.6 41.6 3.2 -11.4677
906 3 14.4 40 4.8 -11.0238
937 1 12.8 41.6 3.2 -11.7477
908 1 17.6 40 4.8 -11.4687
939 2 16 41.6 3.2 -9.71871
910 3 20.8 40 4.8 -10.9008
941 1 19.2 41.6 3.2 -11.6182
912 1 24 40 4.8 -11.378
943 1 22.4 41.6 3.2 -11.7203
945 1 25.6 41.6 3.2 -11.7182
914 3 27.2 40 4.8 -10.898
947 2 28.8 41.6 3.2 -9.69088
916 1 30.4 40 4.8 -11.4902
949 3 32 41.6 3.2 -10.9885
918 2 33.6 40 4.8 -9.644
951 1 35.2 41.6 3.2 -11.4555
920 3 36.8 40 4.8 -10.7969
953 1 38.4 41.6 3.2 -11.3437
922 1 40 40 4.8 -11.3443
955 2 41.6 41.6 3.2 -9.50695
924 1 43.2 40 4.8 -11.4592
957 3 44.8 41.6 3.2 -10.9954
926 1 46.4 40 4.8 -11.4102
959 2 48 41.6 3.2 -9.61103
928 2 49.6 40 4.8 -9.53068
930 1 1.6 43.2 4.8 -11.4223
961 3 0 44.8 3.2 -10.9936
932 2 4.8 43.2 4.8 -9.5573
963 1 3.2 44.8 3.2 -11.3477
934 2 8 43.2 4.8 -9.56599
965 1 6.4 44.8 3.2 -11.4228
936 2 11.2 43.2 4.8 -9.55324
967 1 9.6 44.8 3.2 -11.3802
938 2 14.4 43.2 4.8 -9.68571
969 1 12.8 44.8 3.2 -11.6737
940 2 17.6 43.2 4.8 -9.65854
971 1 16 44.8 3.2 -11.7834
942 3 20.8 43.2 4.8 -11.206
973 1 19.2 44.8 3.2 -11.8122
944 3 24 43.2 4.8 -11.0364
975 1 22.4 44.8 3.2 -11.8124
977 1 25.6 44.8 3.2 -11.7468
946 2 27.2 43.2 4.8 -9.78657
979 3 28.8 44.8 3.2 -11.1333
948 1 30.4 43.2 4.8 -11.6231
981 2 32 44.8 3.2 -9.58004
950 1 33.6 43.2 4.8 -11.4818
983 1 35.2 44.8 3.2 -11.2219
952 1 36.8 43.2 4.8 -11.4073
985 3 38.4 44.8 3.2 -10.9951
954 1 40 43.2 4.8 -11.4648
987 3 41.6 44.8 3.2 -11.0836
956 1 43.2 43.2 4.8 -11.4766
989 3 44.8 44.8 3.2 -11.0836
958 1 46.4 43.2 4.8 -11.4766
991 3 48 44.8 3.2 -11.0841
960 1 49.6 43.2 4.8 -11.5223
962 1 1.6 46.4 4.8 -11.4945
993 3 0 48 3.2 -11.2447
964 1 4.8 46.4 4.8 -11.4914
995 3 3.2 48 3.2 -11.0819
966 1 8 46.4 4.8 -11.4313
997 3 6.4 48 3.2 -10.9457
968 1 11.2 46.4 4.8 -11.4647
999 1 9.6 48 3.2 -11.3527
970 2 14.4 46.4 4.8 -9.63289
1001 3 12.8 48 3.2 -11.0258
972 3 17.6 46.4 4.8 -11.1671
1003 1 16 48 3.2 -11.6411
974 3 20.8 46.4 4.8 -11.2429
1005 1 19.2 48 3.2 -11.8124
976 3 24 46.4 4.8 -11.084
1007 1 22.4 48 3.2 -11.7846
1009 1 25.6 48 3.2 -11.5813
978 2 27.2 46.4 4.8 -9.63136
1011 1 28.8 48 3.2 -11.4452
980 1 30.4 46.4 4.8 -11.6004
1013 2 32 48 3.2 -9.48772
982 1 33.6 46.4 4.8 -11.4729
1015 1 35.2 48 3.2 -11.315
984 1 36.8 46.4 4.8 -11.5028
1017 3 38.4 48 3.2 -10.9494
986 1 40 46.4 4.8 -11.5238
1019 3 41.6 48 3.2 -10.9001
988 1 43.2 46.4 4.8 -11.4788
1021 2 44.8 48 3.2 -9.54536
990 1 46.4 46.4 4.8 -11.4414
1023 3 48 48 3.2 -11.0378
992 1 49.6 46.4 4.8 -11.6151
994 1 1.6 49.6 4.8 -11.8124
996 1 4.8 49.6 4.8 -11.7511
998 1 8 49.6 4.8 -11.6537
1000 1 11.2 49.6 4.8 -11.7089
1002 1 14.4 49.6 4.8 -11.5489
1004 3 17.6 49.6 4.8 -10.9489
1006 3 20.8 49.6 4.8 -11.1666
1008 2 24 49.6 4.8 -9.50582
1010 1 27.2 49.6 4.8 -11.4112
1012 1 30.4 49.6 4.8 -11.6108
1014 1 33.6 49.6 4.8 -11.6454
1016 1 36.8 49.6 4.8 -11.6192
1018 1 40 49.6 4.8 -11.501
1020 1 43.2 49.6 4.8 -11.3842
1022 1 46.4 49.6 4.8 -11.4164
1024 1 49.6 49.6 4.8 -11.7192
1025 3 0 0 6.4 -11.0835
1026 1 1.6 1.6 8 -11.6456
1027 3 3.2 0 6.4 -11.1651
1028 1 4.8 1.6 8 -11.7838
1029 2 6.4 0 6.4 -9.70706
1030 1 8 1.6 8 -11.692
1031 3 9.6 0 6.4 -11.1271
1032 1 11.2 1.6 8 -11.5214
1033 3 12.8 0 6.4 -10.9467
1034 1 14.4 1.6 8 -11.2682
1035 1 16 0 6.4 -11.3664
1036 2 17.6 1.6 8 -9.48101
1037 1 19.2 0 6.4 -11.6454
1038 2 20.8 1.6 8 -9.64886
1039 1 22.4 0 6.4 -11.5829
1040 2 24 1.6 8 -9.48326
1041 1 25.6 0 6.4 -11.2882
1042 1 27.2 1.6 8 -11.4061
1043 3 28.8 0 6.4 -10.9029
1044 1 30.4 1.6 8 -11.4915
1045 3 32 0 6.4 -10.9502
1046 1 33.6 1.6 8 -11.385
1047 3 35.2 0 6.4 -11.1712
1048 1 36.8 1.6 8 -11.5818
1049 3 38.4 0 6.4 -10.9589
1050 1 40 1.6 8 -11.5429
1051 2 41.6 0 6.4 -9.62604
1052 3 43.2 1.6 8 -11.1565
1053 1 44.8 0 6.4 -11.589
1054 3 46.4 1.6 8 -10.9898
1055 3 48 0 6.4 -10.9315
1056 1 49.6 1.6 8 -11.4119
1057 1 0 3.2 6.4 -11.4417
1058 2 1.6 4.8 8 -9.70845
1059 3 3.2 3.2 6.4 -11.1643
1060 1 4.8 4.8 8 -11.6536
1061 3 6.4 3.2 6.4 -11.1657
1062 1 8 4.8 8 -11.5748
1063 3 9.6 3.2 6.4 -11.0822
1064 1 11.2 4.8 8 -11.5225
1065 2 12.8 3.2 6.4 -9.54524
1066 1 14.4 4.8 8 -11.3865
1067 1 16 3.2 6.4 -11.3593
1068 2 17.6 4.8 8 -9.45079
1069 1 19.2 3.2 6.4 -11.6175
1070 3 20.8 4.8 8 -10.9025
1071 1 22.4 3.2 6.4 -11.6968
1072 2 24 4.8 8 -9.56815
1073 1 25.6 3.2 6.4 -11.4799
1074 1 27.2 4.8 8 -11.4018
1075 1 28.8 3.2 6.4 -11.4267
1076 2 30.4 4.8 8 -9.28666
1077 1 32 3.2 6.4 -11.4207
1078 1 33.6 4.8 8 -11.306
1079 2 35.2 3.2 6.4 -9.53897
1080 3 36.8 4.8 8 -10.9993
1081 1 38.4 3.2 6.4 -11.4095
1082 3 40 4.8 8 -10.8588
1083 1 41.6 3.2 6.4 -11.4577
1084 3 43.2 4.8 8 -10.9594
1085 1 44.8 3.2 6.4 -11.629
1086 3 46.4 4.8 8 -10.9097
1087 1 48 3.2 6.4 -11.437
1088 2 49.6 4.8 8 -9.54121
1089 3 0 6.4 6.4 -10.8426
1090 1 1.6 8 8 -11.4237
1091 2 3.2 6.4 6.4 -9.72321
1092 1 4.8 8 8 -11.4779
1093 3 6.4 6.4 6.4 -11.0824
1094 1 8 8 8 -11.5519
1095 3 9.6 6.4 6.4 -11.1695
1096 1 11.2 8 8 -11.3859
1097 3 12.8 6.4 6.4 -10.8999
1098 1 14.4 8 8 -11.3741
1099 2 16 6.4 6.4 -9.45157
1100 1 17.6 8 8 -11.4481
1101 1 19.2 6.4 6.4 -11.3898
1102 1 20.8 8 8 -11.2548
1103 1 22.4 6.4 6.4 -11.4575