ITEM: TIMESTEP
0
ITEM: NUMBER OF ATOMS
8192
ITEM: BOX BOUNDS pp pp pp
0.0000000000000000e+00 5.1200000000000003e+01
0.0000000000000000e+00 5.1200000000000003e+01
0.0000000000000000e+00 5.1200000000000003e+01
ITEM: ATOMS id type x y z c_eng
1 1 0 0 0 -11.5764
2 1 1.6 1.6 1.6 -11.1806
3 1 3.2 0 0 -11.4844
4 1 4.8 1.6 1.6 -11.1455
5 1 6.4 0 0 -11.4874
6 1 8 1.6 1.6 -11.1938
7 1 9.6 0 0 -11.29
8 1 11.2 1.6 1.6 -11.3003
9 1 12.8 0 0 -11.1249
10 1 14.4 1.6 1.6 -11.2662
11 2 16 0 0 -9.22721
12 1 17.6 1.6 1.6 -11.2288
13 1 19.2 0 0 -11.2203
14 1 20.8 1.6 1.6 -11.299
15 1 22.4 0 0 -11.2851
16 2 24 1.6 1.6 -9.3304
17 1 25.6 0 0 -11.2153
18 1 27.2 1.6 1.6 -11.3759
19 2 28.8 0 0 -9.35053
20 1 30.4 1.6 1.6 -11.555
21 2 32 0 0 -9.51524
22 1 33.6 1.6 1.6 -11.5119
23 3 35.2 0 0 -10.7537
24 1 36.8 1.6 1.6 -11.5837
25 1 38.4 0 0 -11.1529
26 1 40 1.6 1.6 -11.3669
27 1 41.6 0 0 -11.2505
28 3 43.2 1.6 1.6 -10.8549
29 1 44.8 0 0 -11.4204
30 2 46.4 1.6 1.6 -9.49167
31 1 48 0 0 -11.4976
32 3 49.6 1.6 1.6 -10.9054
33 1 0 3.2 0 -11.2396
34 1 1.6 4.8 1.6 -11.0636
35 1 3.2 3.2 0 -11.1297
36 1 4.8 4.8 1.6 -11.2283
37 2 6.4 3.2 0 -9.3775
38 1 8 4.8 1.6 -11.4308
39 3 9.6 3.2 0 -10.8017
40 1 11.2 4.8 1.6 -11.6343
41 2 12.8 3.2 0 -9.54689
42 1 14.4 4.8 1.6 -11.3903
43 2 16 3.2 0 -9.44978
44 1 17.6 4.8 1.6 -11.1505
45 1 19.2 3.2 0 -11.3535
46 1 20.8 4.8 1.6 -11.1126
47 1 22.4 3.2 0 -11.4345
48 2 24 4.8 1.6 -9.32969
49 1 25.6 3.2 0 -11.3147
50 1 27.2 4.8 1.6 -11.3131
51 2 28.8 3.2 0 -9.32123
52 1 30.4 4.8 1.6 -11.252
53 1 32 3.2 0 -11.1907
54 1 33.6 4.8 1.6 -11.298
55 3 35.2 3.2 0 -10.8996
56 1 36.8 4.8 1.6 -11.4436
57 3 38.4 3.2 0 -10.8068
58 1 40 4.8 1.6 -11.26
59 1 41.6 3.2 0 -11.3669
60 1 43.2 4.8 1.6 -11.2634
61 1 44.8 3.2 0 -11.4195
62 1 46.4 4.8 1.6 -11.1937
63 1 48 3.2 0 -11.3292
64 1 49.6 4.8 1.6 -11.3343
65 2 0 6.4 0 -9.36745
66 1 1.6 8 1.6 -11.3968
67 1 3.2 6.4 0 -11.1596
68 1 4.8 8 1.6 -11.3084
69 1 6.4 6.4 0 -11.1892
70 1 8 8 1.6 -11.3044
71 2 9.6 6.4 0 -9.42625
72 1 11.2 8 1.6 -11.3328
73 3 12.8 6.4 0 -10.6922
74 1 14.4 8 1.6 -11.1814
75 1 16 6.4 0 -11.3336
76 1 17.6 8 1.6 -11.2232
77 1 19.2 6.4 0 -11.4844
78 2 20.8 8 1.6 -9.44857
79 1 22.4 6.4 0 -11.4259
80 1 24 8 1.6 -11.1789
81 2 25.6 6.4 0 -9.34122
82 2 27.2 8 1.6 -9.37382
83 1 28.8 6.4 0 -11.3239
84 2 30.4 8 1.6 -9.39809
85 1 32 6.4 0 -11.1671
86 2 33.6 8 1.6 -9.43444
87 1 35.2 6.4 0 -11.3737
88 2 36.8 8 1.6 -9.31037
89 1 38.4 6.4 0 -11.2875
90 1 40 8 1.6 -11.1929
91 1 41.6 6.4 0 -11.2526
92 1 43.2 8 1.6 -11.2507
93 1 44.8 6.4 0 -11.1503
94 1 46.4 8 1.6 -11.2969
95 1 48 6.4 0 -11.041
96 1 49.6 8 1.6 -11.3968
97 2 0 9.6 0 -9.43314
98 1 1.6 11.2 1.6 -11.4976
99 3 3.2 9.6 0 -10.8515
100 1 4.8 11.2 1.6 -11.5054
101 1 6.4 9.6 0 -11.1612
102 1 8 11.2 1.6 -11.1495
103 1 9.6 9.6 0 -11.1495
104 1 11.2 11.2 1.6 -11.1566
105 1 12.8 9.6 0 -11.1917
106 1 14.4 11.2 1.6 -11.2215
107 1 16 9.6 0 -11.3457
108 2 17.6 11.2 1.6 -9.47252
109 1 19.2 9.6 0 -11.6749
110 3 20.8 11.2 1.6 -10.9983
111 1 22.4 9.6 0 -11.363
112 1 24 11.2 1.6 -11.1582
113 1 25.6 9.6 0 -11.2653
114 3 27.2 11.2 1.6 -10.7556
115 1 28.8 9.6 0 -11.3744
116 2 30.4 11.2 1.6 -9.55405
117 1 32 9.6 0 -11.4677
118 3 33.6 11.2 1.6 -10.9027
119 1 35.2 9.6 0 -11.6279
120 2 36.8 11.2 1.6 -9.4338
121 1 38.4 9.6 0 -11.4729
122 1 40 11.2 1.6 -11.1907
123 1 41.6 9.6 0 -11.2958
124 1 43.2 11.2 1.6 -11.1488
125 1 44.8 9.6 0 -11.1458
126 1 46.4 11.2 1.6 -11.4242
127 1 48 9.6 0 -11.1885
128 1 49.6 11.2 1.6 -11.4316
129 2 0 12.8 0 -9.58242
130 1 1.6 14.4 1.6 -11.4976
131 3 3.2 12.8 0 -10.9045
132 1 4.8 14.4 1.6 -11.5867
133 1 6.4 12.8 0 -11.233
134 1 8 14.4 1.6 -11.2882
135 1 9.6 12.8 0 -11.3084
136 3 11.2 14.4 1.6 -10.902
137 1 12.8 12.8 0 -11.5061
138 3 14.4 14.4 1.6 -10.8524
139 1 16 12.8 0 -11.514
140 2 17.6 14.4 1.6 -9.58772
141 1 19.2 12.8 0 -11.6173
142 3 20.8 14.4 1.6 -10.9105
143 1 22.4 12.8 0 -11.4386
144 2 24 14.4 1.6 -9.48227
145 1 25.6 12.8 0 -11.2499
146 3 27.2 14.4 1.6 -10.8599
147 1 28.8 12.8 0 -11.3307
148 2 30.4 14.4 1.6 -9.36146
149 1 32 12.8 0 -11.3055
150 1 33.6 14.4 1.6 -11.0364
151 1 35.2 12.8 0 -11.298
152 1 36.8 14.4 1.6 -11.1519
153 1 38.4 12.8 0 -11.4316
154 2 40 14.4 1.6 -9.40472
155 1 41.6 12.8 0 -11.337
156 1 43.2 14.4 1.6 -11.1257
157 1 44.8 12.8 0 -11.2274
158 1 46.4 14.4 1.6 -11.4554
159 3 48 12.8 0 -10.9042
160 1 49.6 14.4 1.6 -11.5361
161 2 0 16 0 -9.54538
162 1 1.6 17.6 1.6 -11.3044
163 3 3.2 16 0 -10.9491
164 1 4.8 17.6 1.6 -11.3754
165 2 6.4 16 0 -9.36186
166 1 8 17.6 1.6 -11.2236
167 1 9.6 16 0 -11.3759
168 2 11.2 17.6 1.6 -9.48178
169 1 12.8 16 0 -11.5829
170 2 14.4 17.6 1.6 -9.40431
171 1 16 16 0 -11.4205
172 3 17.6 17.6 1.6 -10.9521
173 1 19.2 16 0 -11.3639
174 3 20.8 17.6 1.6 -10.9099
175 1 22.4 16 0 -11.4086
176 2 24 17.6 1.6 -9.44956
177 1 25.6 16 0 -11.376
178 2 27.2 17.6 1.6 -9.5269
179 1 28.8 16 0 -11.4359
180 2 30.4 17.6 1.6 -9.39865
181 1 32 16 0 -11.2663
182 1 33.6 17.6 1.6 -11.1618
183 1 35.2 16 0 -11.1738
184 2 36.8 17.6 1.6 -9.47372
185 1 38.4 16 0 -11.5061
186 3 40 17.6 1.6 -10.9027
187 1 41.6 16 0 -11.4205
188 2 43.2 17.6 1.6 -9.27126
189 1 44.8 16 0 -11.1225
190 1 46.4 17.6 1.6 -11.3003
191 2 48 16 0 -9.55104
192 1 49.6 17.6 1.6 -11.3983
193 2 0 19.2 0 -9.47359
194 1 1.6 20.8 1.6 -11.4061
195 1 3.2 19.2 0 -11.3038
196 2 4.8 20.8 1.6 -9.37382
197 1 6.4 19.2 0 -11.3744
198 2 8 20.8 1.6 -9.44944
199 1 9.6 19.2 0 -11.4677
200 3 11.2 20.8 1.6 -10.9988
201 1 12.8 19.2 0 -11.3926
202 1 14.4 20.8 1.6 -11.1923
203 1 16 19.2 0 -11.2917
204 2 17.6 20.8 1.6 -9.35107
205 1 19.2 19.2 0 -11.3297
206 2 20.8 20.8 1.6 -9.4348
207 1 22.4 19.2 0 -11.3754
208 2 24 20.8 1.6 -9.31076
209 1 25.6 19.2 0 -11.2376
210 1 27.2 20.8 1.6 -11.3678
211 2 28.8 19.2 0 -9.46409
212 1 30.4 20.8 1.6 -11.2761
213 1 32 19.2 0 -11.3082
214 1 33.6 20.8 1.6 -11.1233
215 1 35.2 19.2 0 -11.3535
216 2 36.8 20.8 1.6 -9.43971
217 1 38.4 19.2 0 -11.5514
218 2 40 20.8 1.6 -9.44919
219 1 41.6 19.2 0 -11.4795
220 2 43.2 20.8 1.6 -9.39845
221 1 44.8 19.2 0 -11.25
222 1 46.4 20.8 1.6 -11.1979
223 2 48 19.2 0 -9.4392
224 1 49.6 20.8 1.6 -11.4608
225 3 0 22.4 0 -11.0408
226 1 1.6 24 1.6 -11.4837
227 1 3.2 22.4 0 -11.3865
228 1 4.8 24 1.6 -11.2332
229 1 6.4 22.4 0 -11.3835
230 1 8 24 1.6 -11.2205
231 1 9.6 22.4 0 -11.5355
232 3 11.2 24 1.6 -10.9396
233 1 12.8 22.4 0 -11.4096
234 1 14.4 24 1.6 -11.3218
235 1 16 22.4 0 -11.0428
236 1 17.6 24 1.6 -11.3316
237 1 19.2 22.4 0 -11.1473
238 1 20.8 24 1.6 -11.1979
239 1 22.4 22.4 0 -11.186
240 1 24 24 1.6 -11.1992
241 1 25.6 22.4 0 -11.299
242 1 27.2 24 1.6 -11.4354
243 3 28.8 22.4 0 -10.8021
244 1 30.4 24 1.6 -11.3968
245 2 32 22.4 0 -9.18407
246 1 33.6 24 1.6 -11.1778
247 1 35.2 22.4 0 -11.1539
248 1 36.8 24 1.6 -11.1914
249 1 38.4 22.4 0 -11.3614
250 2 40 24 1.6 -9.39771
251 1 41.6 22.4 0 -11.5205
252 2 43.2 24 1.6 -9.39809
253 1 44.8 22.4 0 -11.3737
254 1 46.4 24 1.6 -11.1979
255 3 48 22.4 0 -10.8985
256 1 49.6 24 1.6 -11.5981
257 3 0 25.6 0 -10.798
259 1 3.2 25.6 0 -11.0856
261 1 6.4 25.6 0 -11.1717
263 1 9.6 25.6 0 -11.3086
265 2 12.8 25.6 0 -9.43873
267 1 16 25.6 0 -11.2313
269 2 19.2 25.6 0 -9.44923
271 1 22.4 25.6 0 -11.1188
273 3 25.6 25.6 0 -10.8008
275 2 28.8 25.6 0 -9.47346
277 1 32 25.6 0 -11.1948
279 1 35.2 25.6 0 -11.1384
281 1 38.4 25.6 0 -11.4677
283 1 41.6 25.6 0 -11.6279
285 1 44.8 25.6 0 -11.3376
287 2 48 25.6 0 -9.3898
258 1 1.6 27.2 1.6 -11.2371
289 1 0 28.8 0 -11.4456
260 1 4.8 27.2 1.6 -11.0437
291 1 3.2 28.8 0 -11.2964
262 1 8 27.2 1.6 -11.1241
293 1 6.4 28.8 0 -11.4195
264 1 11.2 27.2 1.6 -11.2698
295 1 9.6 28.8 0 -11.4195
266 1 14.4 27.2 1.6 -11.2506
297 1 12.8 28.8 0 -11.1986
268 1 17.6 27.2 1.6 -11.4603
299 1 16 28.8 0 -11.0365
270 1 20.8 27.2 1.6 -11.3363
301 3 19.2 28.8 0 -10.9092
272 1 24 27.2 1.6 -11.298
303 1 22.4 28.8 0 -11.1135
305 2 25.6 28.8 0 -9.48141
274 1 27.2 27.2 1.6 -11.6279
307 2 28.8 28.8 0 -9.58366
276 1 30.4 27.2 1.6 -11.5867
309 3 32 28.8 0 -10.7967
278 1 33.6 27.2 1.6 -11.4114
311 1 35.2 28.8 0 -11.2967
280 2 36.8 27.2 1.6 -9.33043
313 1 38.4 28.8 0 -11.4113
282 2 40 27.2 1.6 -9.43492
315 1 41.6 28.8 0 -11.2925
284 2 43.2 27.2 1.6 -9.31089
317 1 44.8 28.8 0 -11.2788
286 1 46.4 27.2 1.6 -11.1281
319 1 48 28.8 0 -11.3294
288 1 49.6 27.2 1.6 -11.3659
290 2 1.6 30.4 1.6 -9.54634
321 1 0 32 0 -11.5429
292 2 4.8 30.4 1.6 -9.43394
323 1 3.2 32 0 -11.6919
294 2 8 30.4 1.6 -9.46882
325 1 6.4 32 0 -11.7245
296 2 11.2 30.4 1.6 -9.3898
327 1 9.6 32 0 -11.7532
298 1 14.4 30.4 1.6 -10.92
329 1 12.8 32 0 -11.4967
300 1 17.6 30.4 1.6 -11.3658
331 1 16 32 0 -11.1996
302 1 20.8 30.4 1.6 -11.532
333 3 19.2 32 0 -10.9988
304 1 24 30.4 1.6 -11.4685
335 2 22.4 32 0 -9.4913
337 3 25.6 32 0 -10.9034
306 1 27.2 30.4 1.6 -11.662
339 2 28.8 32 0 -9.51374
308 1 30.4 30.4 1.6 -11.7511
341 3 32 32 0 -11.0868
310 1 33.6 30.4 1.6 -11.5251
343 3 35.2 32 0 -10.8105
312 1 36.8 30.4 1.6 -11.3316
345 3 38.4 32 0 -10.7529
314 1 40 30.4 1.6 -11.2974
347 1 41.6 32 0 -11.2337
316 1 43.2 30.4 1.6 -11.3732
349 3 44.8 32 0 -10.8075
318 2 46.4 30.4 1.6 -9.45477
351 1 48 32 0 -11.3492
320 3 49.6 30.4 1.6 -10.8606
322 3 1.6 33.6 1.6 -10.8536
353 1 0 35.2 0 -11.3511
324 2 4.8 33.6 1.6 -9.51437
355 1 3.2 35.2 0 -11.5061
326 3 8 33.6 1.6 -10.8538
357 1 6.4 35.2 0 -11.4213
328 3 11.2 33.6 1.6 -10.798
359 1 9.6 35.2 0 -11.3649
330 1 14.4 33.6 1.6 -11.1859
361 1 12.8 35.2 0 -11.356
332 1 17.6 33.6 1.6 -11.4238
363 2 16 35.2 0 -9.37846
334 1 20.8 33.6 1.6 -11.5829
365 2 19.2 35.2 0 -9.43957
336 1 24 33.6 1.6 -11.3891
367 1 22.4 35.2 0 -11.1981
369 1 25.6 35.2 0 -11.0823
338 1 27.2 33.6 1.6 -11.4213
371 1 28.8 35.2 0 -11.1186
340 1 30.4 33.6 1.6 -11.5831
373 3 32 35.2 0 -10.8362
342 1 33.6 33.6 1.6 -11.5479
375 2 35.2 35.2 0 -9.56619
344 1 36.8 33.6 1.6 -11.4057
377 1 38.4 35.2 0 -11.2677
346 1 40 33.6 1.6 -11.3501
379 1 41.6 35.2 0 -11.0814
348 1 43.2 33.6 1.6 -11.4595
381 1 44.8 35.2 0 -11.2181
350 1 46.4 33.6 1.6 -11.3865
383 1 48 35.2 0 -11.2384
352 1 49.6 33.6 1.6 -11.1942
354 1 1.6 36.8 1.6 -11.1188
385 1 0 38.4 0 -11.3476
356 1 4.8 36.8 1.6 -11.1205
387 1 3.2 38.4 0 -11.532
358 1 8 36.8 1.6 -11.0806
389 1 6.4 38.4 0 -11.3462
360 1 11.2 36.8 1.6 -11.1584
391 1 9.6 38.4 0 -11.2814
362 1 14.4 36.8 1.6 -11.1671
393 1 12.8 38.4 0 -11.2779
364 1 17.6 36.8 1.6 -11.5205
395 2 16 38.4 0 -9.4131
366 1 20.8 36.8 1.6 -11.352
397 2 19.2 38.4 0 -9.31102
368 1 24 36.8 1.6 -11.2661
399 1 22.4 38.4 0 -11.3294
401 1 25.6 38.4 0 -11.4076
370 1 27.2 36.8 1.6 -11.1692
403 1 28.8 38.4 0 -11.1488
372 1 30.4 36.8 1.6 -11.2916
405 1 32 38.4 0 -11.467
374 2 33.6 36.8 1.6 -9.59942
407 1 35.2 38.4 0 -11.5987
376 2 36.8 36.8 1.6 -9.40518
409 1 38.4 38.4 0 -11.359
378 1 40 36.8 1.6 -11.3149
411 1 41.6 38.4 0 -11.2918
380 1 43.2 36.8 1.6 -11.2493
413 1 44.8 38.4 0 -11.2162
382 1 46.4 36.8 1.6 -11.2906
415 1 48 38.4 0 -11.3326
384 1 49.6 36.8 1.6 -11.1874
386 2 1.6 40 1.6 -9.38929
417 1 0 41.6 0 -11.5388
388 3 4.8 40 1.6 -10.6396
419 1 3.2 41.6 0 -11.6824
390 1 8 40 1.6 -11.2301
421 1 6.4 41.6 0 -11.4608
392 2 11.2 40 1.6 -9.41455
423 1 9.6 41.6 0 -11.5313
394 1 14.4 40 1.6 -11.2902
425 1 12.8 41.6 0 -11.5419
396 1 17.6 40 1.6 -11.421
427 1 16 41.6 0 -11.2479
398 1 20.8 40 1.6 -11.2894
429 1 19.2 41.6 0 -11.2352
400 3 24 40 1.6 -10.7434
431 1 22.4 41.6 0 -11.2618
433 1 25.6 41.6 0 -11.3123
402 1 27.2 40 1.6 -11.4151
435 1 28.8 41.6 0 -11.2519
404 1 30.4 40 1.6 -11.2243
437 1 32 41.6 0 -11.4969
406 2 33.6 40 1.6 -9.51463
439 1 35.2 41.6 0 -11.6582
408 2 36.8 40 1.6 -9.47664
441 1 38.4 41.6 0 -11.5514
410 1 40 40 1.6 -11.2486
443 1 41.6 41.6 0 -11.4427
412 1 43.2 40 1.6 -11.2188
445 1 44.8 41.6 0 -11.444
414 1 46.4 40 1.6 -11.1208
447 1 48 41.6 0 -11.4205
416 1 49.6 40 1.6 -11.1588
418 2 1.6 43.2 1.6 -9.5798
449 1 0 44.8 0 -11.6969
420 1 4.8 43.2 1.6 -11.2552
451 1 3.2 44.8 0 -11.6847
422 1 8 43.2 1.6 -11.0318
453 1 6.4 44.8 0 -11.3486
424 3 11.2 43.2 1.6 -10.9993
455 1 9.6 44.8 0 -11.4851
426 2 14.4 43.2 1.6 -9.28671
457 1 12.8 44.8 0 -11.4851
428 2 17.6 43.2 1.6 -9.33025
459 1 16 44.8 0 -11.2674
430 1 20.8 43.2 1.6 -11.2948
461 1 19.2 44.8 0 -11.4772
432 1 24 43.2 1.6 -11.3078
463 1 22.4 44.8 0 -11.3707
465 1 25.6 44.8 0 -11.1882
434 1 27.2 43.2 1.6 -11.2931
467 1 28.8 44.8 0 -11.1645
436 1 30.4 43.2 1.6 -11.2264
469 1 32 44.8 0 -11.3702
438 2 33.6 43.2 1.6 -9.48166
471 1 35.2 44.8 0 -11.4519
440 2 36.8 43.2 1.6 -9.515
473 1 38.4 44.8 0 -11.3834
442 2 40 43.2 1.6 -9.4889
475 1 41.6 44.8 0 -11.471
444 3 43.2 43.2 1.6 -10.85
477 1 44.8 44.8 0 -11.5739
446 2 46.4 43.2 1.6 -9.61555
479 1 48 44.8 0 -11.675
448 3 49.6 43.2 1.6 -10.8049
450 3 1.6 46.4 1.6 -11.0821
481 1 0 48 0 -11.6824
452 3 4.8 46.4 1.6 -10.9447
483 1 3.2 48 0 -11.8124
454 1 8 46.4 1.6 -11.2191
485 1 6.4 48 0 -11.532
456 3 11.2 46.4 1.6 -10.9596
487 1 9.6 48 0 -11.4362
458 1 14.4 46.4 1.6 -11.1923
489 1 12.8 48 0 -11.2522
460 2 17.6 46.4 1.6 -9.406
491 1 16 48 0 -11.1525
462 2 20.8 46.4 1.6 -9.57166
493 1 19.2 48 0 -11.3517
464 1 24 46.4 1.6 -11.4912
495 1 22.4 48 0 -11.3079
497 1 25.6 48 0 -11.1853
466 1 27.2 46.4 1.6 -11.4445
499 1 28.8 48 0 -11.2338
468 1 30.4 46.4 1.6 -11.335
501 2 32 48 0 -9.44491
470 1 33.6 46.4 1.6 -11.4275
503 2 35.2 48 0 -9.44595
472 1 36.8 46.4 1.6 -11.2475
505 1 38.4 48 0 -11.128
474 1 40 46.4 1.6 -11.233
507 1 41.6 48 0 -11.2273
476 3 43.2 46.4 1.6 -10.9013
509 1 44.8 48 0 -11.339
478 3 46.4 46.4 1.6 -10.8493
511 1 48 48 0 -11.444
480 1 49.6 46.4 1.6 -11.346
482 3 1.6 49.6 1.6 -11.0824
484 3 4.8 49.6 1.6 -11.0838
486 2 8 49.6 1.6 -9.48915
488 2 11.2 49.6 1.6 -9.27087
490 1 14.4 49.6 1.6 -11.047
492 1 17.6 49.6 1.6 -11.2961
494 1 20.8 49.6 1.6 -11.3831
496 1 24 49.6 1.6 -11.319
498 1 27.2 49.6 1.6 -11.376
500 1 30.4 49.6 1.6 -11.6156
502 1 33.6 49.6 1.6 -11.5887
504 1 36.8 49.6 1.6 -11.4049
506 1 40 49.6 1.6 -11.148
508 2 43.2 49.6 1.6 -9.41322
510 1 46.4 49.6 1.6 -11.1888
512 2 49.6 49.6 1.6 -9.50581
513 1 0 0 3.2 -11.7203
514 3 1.6 1.6 4.8 -10.7956
515 1 3.2 0 3.2 -11.5258
516 1 4.8 1.6 4.8 -11.2248
517 1 6.4 0 3.2 -11.3649
518 1 8 1.6 4.8 -11.0419
519 1 9.6 0 3.2 -11.2163
520 1 11.2 1.6 4.8 -11.1691
521 1 12.8 0 3.2 -11.1273
522 1 14.4 1.6 4.8 -11.2651
523 1 16 0 3.2 -11.1235
524 1 17.6 1.6 4.8 -11.2906
525 3 19.2 0 3.2 -10.5825
526 1 20.8 1.6 4.8 -11.1951
527 2 22.4 0 3.2 -9.41546
528 1 24 1.6 4.8 -11.1186
529 1 25.6 0 3.2 -11.2623
530 1 27.2 1.6 4.8 -11.2182
531 3 28.8 0 3.2 -10.8531
532 1 30.4 1.6 4.8 -11.4729
533 2 32 0 3.2 -9.47333
534 1 33.6 1.6 4.8 -11.3901
535 1 35.2 0 3.2 -11.2524
536 1 36.8 1.6 4.8 -11.5444
537 2 38.4 0 3.2 -9.40484
538 1 40 1.6 4.8 -11.4126
539 1 41.6 0 3.2 -11.3739
540 2 43.2 1.6 4.8 -9.44006
541 1 44.8 0 3.2 -11.4685
542 2 46.4 1.6 4.8 -9.48851
543 1 48 0 3.2 -11.532
544 3 49.6 1.6 4.8 -11.0408
545 1 0 3.2 3.2 -11.3705
546 1 1.6 4.8 4.8 -11.3893
547 1 3.2 3.2 3.2 -11.139
548 2 4.8 4.8 4.8 -9.35814
549 1 6.4 3.2 3.2 -11.1146
550 1 8 4.8 4.8 -11.3869
551 1 9.6 3.2 3.2 -11.1512
552 1 11.2 4.8 4.8 -11.3959
553 2 12.8 3.2 3.2 -9.3211
554 1 14.4 4.8 4.8 -11.3189
555 1 16 3.2 3.2 -11.1233
556 2 17.6 4.8 4.8 -9.18365
557 1 19.2 3.2 3.2 -11.0904
558 1 20.8 4.8 4.8 -11.1934
559 1 22.4 3.2 3.2 -11.2421
560 2 24 4.8 4.8 -9.13624
561 1 25.6 3.2 3.2 -11.2488
562 1 27.2 4.8 4.8 -11.151
563 2 28.8 3.2 3.2 -9.43515
564 1 30.4 4.8 4.8 -11.3381
565 2 32 3.2 3.2 -9.39746
566 1 33.6 4.8 4.8 -11.2958
567 2 35.2 3.2 3.2 -9.52933
568 1 36.8 4.8 4.8 -11.4313
569 3 38.4 3.2 3.2 -10.8538
570 1 40 4.8 4.8 -11.3827
571 1 41.6 3.2 3.2 -11.3083
572 1 43.2 4.8 4.8 -11.2244
573 1 44.8 3.2 3.2 -11.3754
574 1 46.4 4.8 4.8 -11.2695
575 1 48 3.2 3.2 -11.4461
576 1 49.6 4.8 4.8 -11.3773
577 2 0 6.4 3.2 -9.40537
578 1 1.6 8 4.8 -11.4787
579 1 3.2 6.4 3.2 -11.25
580 1 4.8 8 4.8 -11.5944
581 2 6.4 6.4 3.2 -9.4795
582 1 8 8 4.8 -11.5044
583 3 9.6 6.4 3.2 -10.8066
584 1 11.2 8 4.8 -11.3893
585 2 12.8 6.4 3.2 -9.48985
586 2 14.4 8 4.8 -9.41454
587 1 16 6.4 3.2 -11.2772
588 3 17.6 8 4.8 -10.9519
589 1 19.2 6.4 3.2 -11.339
590 3 20.8 8 4.8 -10.8504
591 1 22.4 6.4 3.2 -11.3167
592 1 24 8 4.8 -11.1635
593 1 25.6 6.4 3.2 -11.2377
594 1 27.2 8 4.8 -11.1233
595 1 28.8 6.4 3.2 -11.2507
596 2 30.4 8 4.8 -9.32136
597 1 32 6.4 3.2 -11.2519
598 1 33.6 8 4.8 -11.0775
599 1 35.2 6.4 3.2 -11.1458
600 1 36.8 8 4.8 -11.19
601 1 38.4 6.4 3.2 -11.329
602 2 40 8 4.8 -9.42264
603 2 41.6 6.4 3.2 -9.24014
604 1 43.2 8 4.8 -11.3159
605 2 44.8 6.4 3.2 -9.36818
606 1 46.4 8 4.8 -11.3759
607 3 48 6.4 3.2 -10.699
608 1 49.6 8 4.8 -11.4316
609 1 0 9.6 3.2 -11.2225
610 1 1.6 11.2 4.8 -11.4729
611 2 3.2 9.6 3.2 -9.43881
612 1 4.8 11.2 4.8 -11.5205
613 2 6.4 9.6 3.2 -9.39772
614 1 8 11.2 4.8 -11.2906
615 1 9.6 9.6 3.2 -11.2174
616 3 11.2 11.2 4.8 -10.798
617 1 12.8 9.6 3.2 -11.3189
618 3 14.4 11.2 4.8 -10.8529
619 1 16 9.6 3.2 -11.4321
620 2 17.6 11.2 4.8 -9.61652
621 1 19.2 9.6 3.2 -11.618
622 2 20.8 11.2 4.8 -9.47359
623 1 22.4 9.6 3.2 -11.3353
624 1 24 11.2 4.8 -11.1217
625 1 25.6 9.6 3.2 -11.2006
626 1 27.2 11.2 4.8 -11.2264
627 1 28.8 9.6 3.2 -11.4721
628 2 30.4 11.2 4.8 -9.43906
629 1 32 9.6 3.2 -11.5514
630 2 33.6 11.2 4.8 -9.49193
631 1 35.2 9.6 3.2 -11.4685
632 2 36.8 11.2 4.8 -9.39759
633 1 38.4 9.6 3.2 -11.3595
634 2 40 11.2 4.8 -9.41595
635 1 41.6 9.6 3.2 -11.2181
636 1 43.2 11.2 4.8 -11.2479
637 2 44.8 9.6 3.2 -9.32174
638 1 46.4 11.2 4.8 -11.3844
639 2 48 9.6 3.2 -9.41283
640 1 49.6 11.2 4.8 -11.4325
641 1 0 12.8 3.2 -11.2211
642 1 1.6 14.4 4.8 -11.5061
643 2 3.2 12.8 3.2 -9.51463
644 1 4.8 14.4 4.8 -11.4729
645 2 6.4 12.8 3.2 -9.32111
646 1 8 14.4 4.8 -11.1881
647 1 9.6 12.8 3.2 -11.3726
648 3 11.2 14.4 4.8 -10.8599
649 1 12.8 12.8 3.2 -11.5426
650 1 14.4 14.4 4.8 -11.251
651 1 16 12.8 3.2 -11.5397
652 2 17.6 14.4 4.8 -9.32
653 1 19.2 12.8 3.2 -11.5867
654 1 20.8 14.4 4.8 -11.1893
655 1 22.4 12.8 3.2 -11.4316
656 2 24 14.4 4.8 -9.13529
657 1 25.6 12.8 3.2 -11.343
658 1 27.2 14.4 4.8 -11.1939
659 1 28.8 12.8 3.2 -11.4251
660 1 30.4 14.4 4.8 -10.9965
661 1 32 12.8 3.2 -11.3935
662 1 33.6 14.4 4.8 -11.0788
663 1 35.2 12.8 3.2 -11.3901
664 2 36.8 14.4 4.8 -9.43944
665 1 38.4 12.8 3.2 -11.4498
666 2 40 14.4 4.8 -9.40556
667 1 41.6 12.8 3.2 -11.3087
668 1 43.2 14.4 4.8 -11.155
669 2 44.8 12.8 3.2 -9.27072
670 1 46.4 14.4 4.8 -11.4527
671 3 48 12.8 3.2 -10.9991
672 1 49.6 14.4 4.8 -11.5739
673 1 0 16 3.2 -11.1896
674 1 1.6 17.6 4.8 -11.2106
675 2 3.2 16 3.2 -9.48203
676 1 4.8 17.6 4.8 -11.2162
677 2 6.4 16 3.2 -9.31102
678 1 8 17.6 4.8 -11.0411
679 1 9.6 16 3.2 -11.3316
680 1 11.2 17.6 4.8 -11.2289
681 1 12.8 16 3.2 -11.4608
682 1 14.4 17.6 4.8 -11.1476
683 1 16 16 3.2 -11.5061
684 2 17.6 17.6 4.8 -9.49143
685 1 19.2 16 3.2 -11.5361
686 1 20.8 17.6 4.8 -11.1083
687 1 22.4 16 3.2 -11.4251
688 1 24 17.6 4.8 -11.157
689 1 25.6 16 3.2 -11.4907
690 2 27.2 17.6 4.8 -9.27058
691 1 28.8 16 3.2 -11.3927
692 1 30.4 17.6 4.8 -11.0859
693 1 32 16 3.2 -11.1818
694 2 33.6 17.6 4.8 -9.35106
695 1 35.2 16 3.2 -11.3051
696 3 36.8 17.6 4.8 -10.9519
697 1 38.4 16 3.2 -11.5161
698 1 40 17.6 4.8 -11.2656
699 1 41.6 16 3.2 -11.3022
700 1 43.2 17.6 4.8 -11.1503
701 1 44.8 16 3.2 -11.1635
702 1 46.4 17.6 4.8 -11.343
703 3 48 16 3.2 -10.8055
704 1 49.6 17.6 4.8 -11.3472
705 1 0 19.2 3.2 -11.0364
706 1 1.6 20.8 4.8 -11.1986
707 1 3.2 19.2 3.2 -11.1151
708 1 4.8 20.8 4.8 -11.2324
709 1 6.4 19.2 3.2 -11.252
710 2 8 20.8 4.8 -9.43467
711 1 9.6 19.2 3.2 -11.4195
712 3 11.2 20.8 4.8 -10.8588
713 1 12.8 19.2 3.2 -11.4316
714 2 14.4 20.8 4.8 -9.36652
715 1 16 19.2 3.2 -11.4795
716 2 17.6 20.8 4.8 -9.47761
717 1 19.2 19.2 3.2 -11.5867
718 2 20.8 20.8 4.8 -9.40792
719 1 22.4 19.2 3.2 -11.4729
720 2 24 20.8 4.8 -9.36744
721 1 25.6 19.2 3.2 -11.4782
722 3 27.2 20.8 4.8 -10.6968
723 1 28.8 19.2 3.2 -11.3653
724 1 30.4 20.8 4.8 -11.1544
725 1 32 19.2 3.2 -11.1791
726 2 33.6 20.8 4.8 -9.27139
727 1 35.2 19.2 3.2 -11.4976
728 3 36.8 20.8 4.8 -10.7467
729 1 38.4 19.2 3.2 -11.5423
730 1 40 20.8 4.8 -11.1619
731 1 41.6 19.2 3.2 -11.377
732 1 43.2 20.8 4.8 -11.2519
733 1 44.8 19.2 3.2 -11.1473
734 1 46.4 20.8 4.8 -11.2969
735 1 48 19.2 3.2 -11.1166
736 1 49.6 20.8 4.8 -11.2786
737 3 0 22.4 3.2 -10.7973
738 1 1.6 24 4.8 -11.4308
739 2 3.2 22.4 3.2 -9.2872
740 1 4.8 24 4.8 -11.2709
741 1 6.4 22.4 3.2 -11.4013
742 2 8 24 4.8 -9.23967
743 1 9.6 22.4 3.2 -11.5562
744 1 11.2 24 4.8 -11.3849
745 1 12.8 22.4 3.2 -11.4653
746 1 14.4 24 4.8 -11.441
747 1 16 22.4 3.2 -11.2882
748 1 17.6 24 4.8 -11.4406
749 1 19.2 22.4 3.2 -11.3737
750 1 20.8 24 4.8 -11.3742
751 1 22.4 22.4 3.2 -11.2557
752 1 24 24 4.8 -11.1646
753 1 25.6 22.4 3.2 -11.2956
754 1 27.2 24 4.8 -11.3671
755 1 28.8 22.4 3.2 -11.2773
756 1 30.4 24 4.8 -11.2645
757 1 32 22.4 3.2 -11.1265
758 1 33.6 24 4.8 -11.2539
759 1 35.2 22.4 3.2 -11.2893
760 1 36.8 24 4.8 -11.1889
761 1 38.4 22.4 3.2 -11.3095
762 1 40 24 4.8 -11.0454
763 1 41.6 22.4 3.2 -11.2563
764 1 43.2 24 4.8 -11.2893
765 1 44.8 22.4 3.2 -11.1473
766 1 46.4 24 4.8 -11.3649
767 1 48 22.4 3.2 -11.1918
768 1 49.6 24 4.8 -11.5099
769 3 0 25.6 3.2 -10.8061
771 1 3.2 25.6 3.2 -11.198
773 2 6.4 25.6 3.2 -9.14317
775 1 9.6 25.6 3.2 -11.3021
777 3 12.8 25.6 3.2 -10.9039
779 3 16 25.6 3.2 -10.8597
781 3 19.2 25.6 3.2 -10.852
783 1 22.4 25.6 3.2 -11.1248
785 2 25.6 25.6 3.2 -9.35093
787 2 28.8 25.6 3.2 -9.47701
789 2 32 25.6 3.2 -9.36108
791 2 35.2 25.6 3.2 -9.33074
793 1 38.4 25.6 3.2 -11.2402
795 1 41.6 25.6 3.2 -11.3387
797 1 44.8 25.6 3.2 -11.1881
799 1 48 25.6 3.2 -11.1549
770 1 1.6 27.2 4.8 -11.2974
801 1 0 28.8 3.2 -11.4123
772 1 4.8 27.2 4.8 -11.2019
803 1 3.2 28.8 3.2 -11.1677
774 1 8 27.2 4.8 -11.2505
805 1 6.4 28.8 3.2 -11.2299
776 1 11.2 27.2 4.8 -11.2207
807 1 9.6 28.8 3.2 -11.1488
778 1 14.4 27.2 4.8 -11.4925
809 1 12.8 28.8 3.2 -11.0814
780 1 17.6 27.2 4.8 -11.5837
811 1 16 28.8 3.2 -11.1478
782 1 20.8 27.2 4.8 -11.3039
813 2 19.2 28.8 3.2 -9.4487
784 1 24 27.2 4.8 -11.283
815 1 22.4 28.8 3.2 -11.0752
817 2 25.6 28.8 3.2 -9.47663
786 1 27.2 27.2 4.8 -11.5205
819 2 28.8 28.8 3.2 -9.6154
788 1 30.4 27.2 4.8 -11.5514
821 3 32 28.8 3.2 -10.9978
790 1 33.6 27.2 4.8 -11.3959
823 1 35.2 28.8 3.2 -11.1422
792 1 36.8 27.2 4.8 -11.2512
825 1 38.4 28.8 3.2 -11.2265
794 1 40 27.2 4.8 -11.1674
827 1 41.6 28.8 3.2 -11.1465
796 1 43.2 27.2 4.8 -11.1993
829 1 44.8 28.8 3.2 -11.1852
798 1 46.4 27.2 4.8 -11.1572
831 1 48 28.8 3.2 -11.2049
800 1 49.6 27.2 4.8 -11.3431
802 2 1.6 30.4 4.8 -9.47434
833 1 0 32 3.2 -11.5423
804 1 4.8 30.4 4.8 -11.2709
835 1 3.2 32 3.2 -11.5008
806 1 8 30.4 4.8 -11.3744
837 1 6.4 32 3.2 -11.4113
808 1 11.2 30.4 4.8 -11.2986
839 1 9.6 32 3.2 -11.4066
810 1 14.4 30.4 4.8 -11.2937
841 1 12.8 32 3.2 -11.2357
812 1 17.6 30.4 4.8 -11.471
843 1 16 32 3.2 -11.0737
814 1 20.8 30.4 4.8 -11.3853
845 3 19.2 32 3.2 -10.9511
816 1 24 30.4 4.8 -11.4685
847 2 22.4 32 3.2 -9.51475
849 2 25.6 32 3.2 -9.58737
818 1 27.2 30.4 4.8 -11.662
851 3 28.8 32 3.2 -11.0413
820 1 30.4 30.4 4.8 -11.7223
853 3 32 32 3.2 -10.9933
822 1 33.6 30.4 4.8 -11.4925
855 1 35.2 32 3.2 -11.2638
824 1 36.8 30.4 4.8 -11.3462
857 2 38.4 32 3.2 -9.41296
826 1 40 30.4 4.8 -11.4195
859 2 41.6 32 3.2 -9.5067
828 1 43.2 30.4 4.8 -11.3343
861 3 44.8 32 3.2 -10.9493
830 1 46.4 30.4 4.8 -11.2584
863 1 48 32 3.2 -11.3814
832 2 49.6 30.4 4.8 -9.36719
834 3 1.6 33.6 4.8 -10.7554
865 1 0 35.2 3.2 -11.239
836 1 4.8 33.6 4.8 -11.3461
867 1 3.2 35.2 3.2 -11.2499
838 1 8 33.6 4.8 -11.4447
869 1 6.4 35.2 3.2 -11.2337
840 1 11.2 33.6 4.8 -11.4123
871 1 9.6 35.2 3.2 -11.3124
842 1 14.4 33.6 4.8 -11.3302
873 1 12.8 35.2 3.2 -11.0989
844 1 17.6 33.6 4.8 -11.5103
875 1 16 35.2 3.2 -11.1528
846 1 20.8 33.6 4.8 -11.6279
877 2 19.2 35.2 3.2 -9.51463
848 1 24 33.6 4.8 -11.5514
879 2 22.4 35.2 3.2 -9.30956
881 1 25.6 35.2 3.2 -11.2274
850 1 27.2 33.6 4.8 -11.5091
883 2 28.8 35.2 3.2 -9.28642
852 1 30.4 33.6 4.8 -11.452
885 1 32 35.2 3.2 -11.3474
854 1 33.6 33.6 4.8 -11.3715
887 1 35.2 35.2 3.2 -11.31
856 1 36.8 33.6 4.8 -11.3315
889 1 38.4 35.2 3.2 -11.2586
858 1 40 33.6 4.8 -11.5692
891 3 41.6 35.2 3.2 -10.9013
860 1 43.2 33.6 4.8 -11.7583
893 2 44.8 35.2 3.2 -9.50621
862 1 46.4 33.6 4.8 -11.5047
895 2 48 35.2 3.2 -9.31089
864 1 49.6 33.6 4.8 -11.2613
866 1 1.6 36.8 4.8 -11.2357
897 1 0 38.4 3.2 -11.1273
868 1 4.8 36.8 4.8 -11.2905
899 1 3.2 38.4 3.2 -11.237
870 1 8 36.8 4.8 -11.4516
901 1 6.4 38.4 3.2 -11.2196
872 1 11.2 36.8 4.8 -11.383
903 2 9.6 38.4 3.2 -9.28774
874 1 14.4 36.8 4.8 -11.3853
905 1 12.8 38.4 3.2 -11.1937
876 1 17.6 36.8 4.8 -11.5829
907 2 16 38.4 3.2 -9.36653
878 1 20.8 36.8 4.8 -11.4729
909 2 19.2 38.4 3.2 -9.51536
880 1 24 36.8 4.8 -11.36
911 1 22.4 38.4 3.2 -11.2387
913 2 25.6 38.4 3.2 -9.44967
882 1 27.2 36.8 4.8 -11.4506
915 2 28.8 38.4 3.2 -9.39857
884 1 30.4 36.8 4.8 -11.252
917 1 32 38.4 3.2 -11.3354
886 2 33.6 36.8 4.8 -9.39857
919 1 35.2 38.4 3.2 -11.5943
888 2 36.8 36.8 4.8 -9.31102
921 1 38.4 38.4 3.2 -11.3743
890 1 40 36.8 4.8 -11.4741
923 3 41.6 38.4 3.2 -10.6954
892 1 43.2 36.8 4.8 -11.7096
925 1 44.8 38.4 3.2 -11.2256
894 1 46.4 36.8 4.8 -11.6156
927 2 48 38.4 3.2 -9.27113
896 1 49.6 36.8 4.8 -11.3839
898 1 1.6 40 4.8 -11.2741
929 1 0 41.6 3.2 -11.3917
900 1 4.8 40 4.8 -11.278
931 1 3.2 41.6 3.2 -11.3089
902 1 8 40 4.8 -11.2493
933 1 6.4 41.6 3.2 -11.0217
904 1 11.2 40 4.8 -11.3539
935 1 9.6 41.6 3.2 -11.2796
906 1 14.4 40 4.8 -11.2081
937 1 12.8 41.6 3.2 -11.3019
908 1 17.6 40 4.8 -11.5355
939 1 16 41.6 3.2 -11.2153
910 1 20.8 40 4.8 -11.3302
941 2 19.2 41.6 3.2 -9.37333
912 1 24 40 4.8 -11.2587
943 1 22.4 41.6 3.2 -11.2424
945 2 25.6 41.6 3.2 -9.50354
914 1 27.2 40 4.8 -11.5196
947 2 28.8 41.6 3.2 -9.39845
916 1 30.4 40 4.8 -11.3365
949 1 32 41.6 3.2 -11.3749
918 2 33.6 40 4.8 -9.43958
951 1 35.2 41.6 3.2 -11.6582
920 2 36.8 40 4.8 -9.43933
953 1 38.4 41.6 3.2 -11.4665
922 1 40 40 4.8 -11.3917
955 1 41.6 41.6 3.2 -11.4644
924 1 43.2 40 4.8 -11.4543
957 1 44.8 41.6 3.2 -11.2926
926 1 46.4 40 4.8 -11.3304
959 1 48 41.6 3.2 -11.3764
928 1 49.6 40 4.8 -11.2863
930 2 1.6 43.2 4.8 -9.3508
961 1 0 44.8 3.2 -11.5429
932 1 4.8 43.2 4.8 -11.041
963 1 3.2 44.8 3.2 -11.5632
934 1 8 43.2 4.8 -11.002
965 1 6.4 44.8 3.2 -11.2534
936 2 11.2 43.2 4.8 -9.44924
967 1 9.6 44.8 3.2 -11.4527
938 1 14.4 43.2 4.8 -11.0819
969 1 12.8 44.8 3.2 -11.5426
940 1 17.6 43.2 4.8 -11.1863
971 1 16 44.8 3.2 -11.2796
942 1 20.8 43.2 4.8 -11.2226
973 1 19.2 44.8 3.2 -11.3605
944 1 24 43.2 4.8 -11.3036
975 2 22.4 44.8 3.2 -9.40398
977 3 25.6 44.8 3.2 -10.9524
946 1 27.2 43.2 4.8 -11.4795
979 2 28.8 44.8 3.2 -9.40485
948 1 30.4 43.2 4.8 -11.2913
981 1 32 44.8 3.2 -11.307
950 3 33.6 43.2 4.8 -10.7468
983 1 35.2 44.8 3.2 -11.4071
952 3 36.8 43.2 4.8 -10.9531
985 1 38.4 44.8 3.2 -11.3759
954 2 40 43.2 4.8 -9.46035
987 1 41.6 44.8 3.2 -11.5005
956 2 43.2 43.2 4.8 -9.52726
989 1 44.8 44.8 3.2 -11.6897
958 2 46.4 43.2 4.8 -9.39747
991 1 48 44.8 3.2 -11.5103
960 2 49.6 43.2 4.8 -9.44995
962 3 1.6 46.4 4.8 -10.9454
993 1 0 48 3.2 -11.5981
964 3 4.8 46.4 4.8 -10.9467
995 1 3.2 48 3.2 -11.8417
966 2 8 46.4 4.8 -9.44858
997 1 6.4 48 3.2 -11.6753
968 3 11.2 46.4 4.8 -10.9524
999 1 9.6 48 3.2 -11.5484
970 2 14.4 46.4 4.8 -9.28704
1001 1 12.8 48 3.2 -11.337
972 1 17.6 46.4 4.8 -11.2234
1003 1 16 48 3.2 -11.2213
974 1 20.8 46.4 4.8 -11.2503
1005 2 19.2 48 3.2 -9.4927
976 1 24 46.4 4.8 -11.5668
1007 3 22.4 48 3.2 -10.951
1009 3 25.6 48 3.2 -10.9956
978 1 27.2 46.4 4.8 -11.6421
1011 3 28.8 48 3.2 -11.045
980 1 30.4 46.4 4.8 -11.4191
1013 3 32 48 3.2 -10.9519
982 1 33.6 46.4 4.8 -11.4123
1015 2 35.2 48 3.2 -9.44969
984 1 36.8 46.4 4.8 -11.3727
1017 2 38.4 48 3.2 -9.31114
986 1 40 46.4 4.8 -11.225
1019 1 41.6 48 3.2 -11.3759
988 2 43.2 46.4 4.8 -9.43419
1021 1 44.8 48 3.2 -11.5019
990 2 46.4 46.4 4.8 -9.43894
1023 1 48 48 3.2 -11.3591
992 1 49.6 46.4 4.8 -11.2869
994 3 1.6 49.6 4.8 -11.2458
996 3 4.8 49.6 4.8 -11.083
998 3 8 49.6 4.8 -10.9011
1000 1 11.2 49.6 4.8 -11.2664
1002 1 14.4 49.6 4.8 -11.2408
1004 1 17.6 49.6 4.8 -11.3146
1006 1 20.8 49.6 4.8 -11.3344
1008 1 24 49.6 4.8 -11.377
1010 1 27.2 49.6 4.8 -11.4925
1012 1 30.4 49.6 4.8 -11.532
1014 1 33.6 49.6 4.8 -11.3853
1016 1 36.8 49.6 4.8 -11.4729
1018 1 40 49.6 4.8 -11.3749
1020 2 43.2 49.6 4.8 -9.32096
1022 1 46.4 49.6 4.8 -11.2554
1024 3 49.6 49.6 4.8 -10.9444
1025 1 0 0 6.4 -11.7811
1026 2 1.6 1.6 8 -9.4693
1027 1 3.2 0 6.4 -11.6564
1028 2 4.8 1.6 8 -9.32097
1029 1 6.4 0 6.4 -11.5361
1030 2 8 1.6 8 -9.27126
1031 1 9.6 0 6.4 -11.3315
1032 1 11.2 1.6 8 -11.3764
1033 2 12.8 0 6.4 -9.31089
1034 1 14.4 1.6 8 -11.5305
1035 2 16 0 6.4 -9.4055
1036 2 17.6 1.6 8 -9.33109
1037 1 19.2 0 6.4 -11.2519
1038 2 20.8 1.6 8 -9.22809
1039 1 22.4 0 6.4 -11.0411
1040 1 24 1.6 8 -11.2403
1041 1 25.6 0 6.4 -11.0728
1042 1 27.2 1.6 8 -11.4527
1043 1 28.8 0 6.4 -11.1905
1044 1 30.4 1.6 8 -11.4685
1045 1 32 0 6.4 -11.1525
1046 1 33.6 1.6 8 -11.4251
1047 1 35.2 0 6.4 -11.1514
1048 1 36.8 1.6 8 -11.3859
1049 3 38.4 0 6.4 -10.6981
1050 1 40 1.6 8 -11.1979
1051 1 41.6 0 6.4 -11.29
1052 2 43.2 1.6 8 -9.43444
1053 1 44.8 0 6.4 -11.4795
1054 3 46.4 1.6 8 -10.9978
1055 1 48 0 6.4 -11.648
1056 2 49.6 1.6 8 -9.50658
1057 1 0 3.2 6.4 -11.4452
1058 1 1.6 4.8 8 -11.2876
1059 1 3.2 3.2 6.4 -11.394
1060 1 4.8 4.8 8 -11.3384
1061 1 6.4 3.2 6.4 -11.2788
1062 1 8 4.8 8 -11.414
1063 1 9.6 3.2 6.4 -11.1209
1064 1 11.2 4.8 8 -11.4316
1065 2 12.8 3.2 6.4 -9.36719
1066 1 14.4 4.8 8 -11.2068
1067 1 16 3.2 6.4 -11.2318
1068 1 17.6 4.8 8 -11.1611
1069 1 19.2 3.2 6.4 -11.2801
1070 2 20.8 4.8 8 -9.23749
1071 1 22.4 3.2 6.4 -11.1785
1072 1 24 4.8 8 -11.2748
1073 1 25.6 3.2 6.4 -11.1635
1074 1 27.2 4.8 8 -11.337
1075 2 28.8 3.2 6.4 -9.36692
1076 1 30.4 4.8 8 -11.4606
1077 2 32 3.2 6.4 -9.44931
1078 1 33.6 4.8 8 -11.5012
1079 3 35.2 3.2 6.4 -10.859
1080 1 36.8 4.8 8 -11.4308
1081 2 38.4 3.2 6.4 -9.50777
1082 1 40 4.8 8 -11.2161
1083 1 41.6 3.2 6.4 -11.2494
1084 2 43.2 4.8 8 -9.32096
1085 1 44.8 3.2 6.4 -11.4677
1086 2 46.4 4.8 8 -9.36679
1087 1 48 3.2 6.4 -11.4187
1088 1 49.6 4.8 8 -11.2702
1089 3 0 6.4 6.4 -10.8027
1090 1 1.6 8 8 -11.3839
1091 2 3.2 6.4 6.4 -9.50157
1092 1 4.8 8 8 -11.3844
1093 3 6.4 6.4 6.4 -10.9937
1094 1 8 8 8 -11.4205
1095 2 9.6 6.4 6.4 -9.44936
1096 1 11.2 8 8 -11.2887
1097 1 12.8 6.4 6.4 -11.2639
1098 1 14.4 8 8 -11.1996
1099 1 16 6.4 6.4 -11.3019
1100 2 17.6 8 8 -9.43908
1101 1 19.2 6.4 6.4 -11.5162
1102 2 20.8 8 8 -9.5157
1103 1 22.4 6.4 6.4 -11.3272
1104 1 24 8 8 -11.229