ITEM: TIMESTEP
0
ITEM: NUMBER OF ATOMS
8192
ITEM: BOX BOUNDS pp pp pp
0.0000000000000000e+00 5.1200000000000003e+01
0.0000000000000000e+00 5.1200000000000003e+01
0.0000000000000000e+00 5.1200000000000003e+01
ITEM: ATOMS id type x y z c_eng
1 1 0 0 0 -11.3779
2 1 1.6 1.6 1.6 -11.1549
3 1 3.2 0 0 -11.5981
4 1 4.8 1.6 1.6 -11.1835
5 1 6.4 0 0 -11.4353
6 2 8 1.6 1.6 -9.32925
7 1 9.6 0 0 -11.3772
8 1 11.2 1.6 1.6 -11.3165
9 1 12.8 0 0 -11.2741
10 1 14.4 1.6 1.6 -11.1791
11 2 16 0 0 -9.03829
12 1 17.6 1.6 1.6 -11.3265
13 1 19.2 0 0 -11.3496
14 1 20.8 1.6 1.6 -11.3455
15 1 22.4 0 0 -11.3746
16 2 24 1.6 1.6 -9.39004
17 1 25.6 0 0 -11.4585
18 2 27.2 1.6 1.6 -9.41205
19 1 28.8 0 0 -11.2923
20 1 30.4 1.6 1.6 -11.4095
21 1 32 0 0 -11.2834
22 1 33.6 1.6 1.6 -11.4085
23 1 35.2 0 0 -11.2269
24 1 36.8 1.6 1.6 -11.3515
25 2 38.4 0 0 -9.32174
26 1 40 1.6 1.6 -11.3748
27 1 41.6 0 0 -11.2377
28 3 43.2 1.6 1.6 -10.6493
29 1 44.8 0 0 -11.4716
30 1 46.4 1.6 1.6 -11.2649
31 1 48 0 0 -11.3044
32 1 49.6 1.6 1.6 -11.115
33 1 0 3.2 0 -11.2363
34 1 1.6 4.8 1.6 -11.1951
35 1 3.2 3.2 0 -11.3765
36 2 4.8 4.8 1.6 -9.2882
37 1 6.4 3.2 0 -11.425
38 1 8 4.8 1.6 -11.3616
39 2 9.6 3.2 0 -9.41172
40 1 11.2 4.8 1.6 -11.6187
41 2 12.8 3.2 0 -9.47446
42 1 14.4 4.8 1.6 -11.4091
43 1 16 3.2 0 -11.2716
44 2 17.6 4.8 1.6 -9.33673
45 1 19.2 3.2 0 -11.3777
46 1 20.8 4.8 1.6 -11.3266
47 1 22.4 3.2 0 -11.4591
48 3 24 4.8 1.6 -10.6982
49 1 25.6 3.2 0 -11.5623
50 1 27.2 4.8 1.6 -11.2406
51 2 28.8 3.2 0 -9.5373
52 1 30.4 4.8 1.6 -11.3393
53 2 32 3.2 0 -9.41543
54 1 33.6 4.8 1.6 -11.1685
55 1 35.2 3.2 0 -11.256
56 1 36.8 4.8 1.6 -11.3935
57 2 38.4 3.2 0 -9.40817
58 1 40 4.8 1.6 -11.3821
59 1 41.6 3.2 0 -11.3282
60 1 43.2 4.8 1.6 -11.2634
61 1 44.8 3.2 0 -11.4592
62 1 46.4 4.8 1.6 -11.2869
63 1 48 3.2 0 -11.2893
64 1 49.6 4.8 1.6 -11.3456
65 3 0 6.4 0 -10.6994
66 1 1.6 8 1.6 -11.4383
67 1 3.2 6.4 0 -11.3082
68 1 4.8 8 1.6 -11.331
69 1 6.4 6.4 0 -11.1937
70 1 8 8 1.6 -11.2769
71 2 9.6 6.4 0 -9.47446
72 1 11.2 8 1.6 -11.4508
73 3 12.8 6.4 0 -10.9521
74 1 14.4 8 1.6 -11.3094
75 1 16 6.4 0 -11.3658
76 1 17.6 8 1.6 -11.1926
77 1 19.2 6.4 0 -11.3579
78 2 20.8 8 1.6 -9.226
79 1 22.4 6.4 0 -11.3044
80 2 24 8 1.6 -9.44042
81 1 25.6 6.4 0 -11.2074
82 1 27.2 8 1.6 -11.2066
83 1 28.8 6.4 0 -11.2274
84 2 30.4 8 1.6 -9.31532
85 1 32 6.4 0 -11.1638
86 1 33.6 8 1.6 -11.1611
87 1 35.2 6.4 0 -11.0411
88 1 36.8 8 1.6 -11.2303
89 2 38.4 6.4 0 -9.50276
90 1 40 8 1.6 -11.3517
91 1 41.6 6.4 0 -11.3147
92 1 43.2 8 1.6 -11.2507
93 1 44.8 6.4 0 -11.3365
94 1 46.4 8 1.6 -11.3759
95 1 48 6.4 0 -11.296
96 1 49.6 8 1.6 -11.4316
97 2 0 9.6 0 -9.36626
98 1 1.6 11.2 1.6 -11.4729
99 2 3.2 9.6 0 -9.3508
100 1 4.8 11.2 1.6 -11.5351
101 1 6.4 9.6 0 -11.2189
102 1 8 11.2 1.6 -11.2755
103 1 9.6 9.6 0 -11.1814
104 1 11.2 11.2 1.6 -11.1942
105 2 12.8 9.6 0 -9.28774
106 1 14.4 11.2 1.6 -11.3238
107 1 16 9.6 0 -11.4139
108 2 17.6 11.2 1.6 -9.36613
109 1 19.2 9.6 0 -11.3584
110 1 20.8 11.2 1.6 -11.1946
111 1 22.4 9.6 0 -11.2545
112 2 24 11.2 1.6 -9.32163
113 1 25.6 9.6 0 -11.1488
114 1 27.2 11.2 1.6 -11.2706
115 2 28.8 9.6 0 -9.4633
116 2 30.4 11.2 1.6 -9.48011
117 1 32 9.6 0 -11.4152
118 2 33.6 11.2 1.6 -9.56757
119 1 35.2 9.6 0 -11.457
120 3 36.8 11.2 1.6 -10.9879
121 1 38.4 9.6 0 -11.5178
122 2 40 11.2 1.6 -9.47434
123 1 41.6 9.6 0 -11.3022
124 1 43.2 11.2 1.6 -11.1488
125 1 44.8 9.6 0 -11.1465
126 1 46.4 11.2 1.6 -11.3973
127 1 48 9.6 0 -11.233
128 1 49.6 11.2 1.6 -11.4002
129 2 0 12.8 0 -9.54574
130 1 1.6 14.4 1.6 -11.4685
131 2 3.2 12.8 0 -9.55105
132 1 4.8 14.4 1.6 -11.5072
133 1 6.4 12.8 0 -11.3044
134 1 8 14.4 1.6 -11.307
135 1 9.6 12.8 0 -11.3835
136 3 11.2 14.4 1.6 -10.9517
137 1 12.8 12.8 0 -11.5286
138 3 14.4 14.4 1.6 -10.9501
139 1 16 12.8 0 -11.5887
140 2 17.6 14.4 1.6 -9.58772
141 1 19.2 12.8 0 -11.5082
142 3 20.8 14.4 1.6 -10.8019
143 1 22.4 12.8 0 -11.3723
144 2 24 14.4 1.6 -9.27125
145 1 25.6 12.8 0 -11.1495
146 1 27.2 14.4 1.6 -11.002
147 1 28.8 12.8 0 -11.1162
148 1 30.4 14.4 1.6 -11.0806
149 1 32 12.8 0 -11.2562
150 1 33.6 14.4 1.6 -11.2704
151 3 35.2 12.8 0 -10.847
152 1 36.8 14.4 1.6 -11.2572
153 1 38.4 12.8 0 -11.6388
154 2 40 14.4 1.6 -9.48902
155 1 41.6 12.8 0 -11.3292
156 1 43.2 14.4 1.6 -11.2153
157 1 44.8 12.8 0 -11.1599
158 1 46.4 14.4 1.6 -11.4353
159 3 48 12.8 0 -10.8502
160 1 49.6 14.4 1.6 -11.4204
161 2 0 16 0 -9.51437
162 1 1.6 17.6 1.6 -11.2062
163 3 3.2 16 0 -10.8013
164 1 4.8 17.6 1.6 -11.3754
165 1 6.4 16 0 -11.1643
166 1 8 17.6 1.6 -11.1217
167 1 9.6 16 0 -11.4195
168 2 11.2 17.6 1.6 -9.48127
169 1 12.8 16 0 -11.6119
170 2 14.4 17.6 1.6 -9.48864
171 1 16 16 0 -11.5054
172 3 17.6 17.6 1.6 -10.9029
173 1 19.2 16 0 -11.5061
174 2 20.8 17.6 1.6 -9.4491
175 1 22.4 16 0 -11.3019
176 1 24 17.6 1.6 -11.1659
177 1 25.6 16 0 -11.1689
178 2 27.2 17.6 1.6 -9.22682
179 1 28.8 16 0 -11.2182
180 2 30.4 17.6 1.6 -9.49252
181 1 32 16 0 -11.2964
182 2 33.6 17.6 1.6 -9.40791
183 1 35.2 16 0 -11.4147
184 2 36.8 17.6 1.6 -9.48927
185 1 38.4 16 0 -11.5664
186 3 40 17.6 1.6 -10.8511
187 1 41.6 16 0 -11.452
188 2 43.2 17.6 1.6 -9.37366
189 1 44.8 16 0 -11.1519
190 1 46.4 17.6 1.6 -11.288
191 3 48 16 0 -10.7462
192 1 49.6 17.6 1.6 -11.2006
193 1 0 19.2 0 -11.1914
194 1 1.6 20.8 1.6 -11.196
195 1 3.2 19.2 0 -11.1874
196 2 4.8 20.8 1.6 -9.32136
197 1 6.4 19.2 0 -11.1705
198 2 8 20.8 1.6 -9.36613
199 1 9.6 19.2 0 -11.4204
200 3 11.2 20.8 1.6 -11.002
201 1 12.8 19.2 0 -11.5012
202 2 14.4 20.8 1.6 -9.36706
203 1 16 19.2 0 -11.377
204 2 17.6 20.8 1.6 -9.40563
205 1 19.2 19.2 0 -11.3333
206 3 20.8 20.8 1.6 -10.8031
207 1 22.4 19.2 0 -11.2894
208 2 24 20.8 1.6 -9.2879
209 1 25.6 19.2 0 -11.2332
210 1 27.2 20.8 1.6 -11.2653
211 1 28.8 19.2 0 -11.3337
212 1 30.4 20.8 1.6 -11.3282
213 1 32 19.2 0 -11.4123
214 1 33.6 20.8 1.6 -11.1937
215 1 35.2 19.2 0 -11.3839
216 1 36.8 20.8 1.6 -11.0815
217 1 38.4 19.2 0 -11.4527
218 1 40 20.8 1.6 -11.159
219 1 41.6 19.2 0 -11.344
220 2 43.2 20.8 1.6 -9.36744
221 1 44.8 19.2 0 -11.2634
222 2 46.4 20.8 1.6 -9.40942
223 1 48 19.2 0 -11.3339
224 2 49.6 20.8 1.6 -9.32393
225 2 0 22.4 0 -9.40567
226 1 1.6 24 1.6 -11.2686
227 1 3.2 22.4 0 -11.2532
228 1 4.8 24 1.6 -11.1562
229 1 6.4 22.4 0 -11.4789
230 2 8 24 1.6 -9.41337
231 1 9.6 22.4 0 -11.4788
232 1 11.2 24 1.6 -11.1588
233 1 12.8 22.4 0 -11.2499
234 1 14.4 24 1.6 -11.1986
235 1 16 22.4 0 -11.1488
236 1 17.6 24 1.6 -11.2396
237 1 19.2 22.4 0 -11.1958
238 1 20.8 24 1.6 -11.2364
239 1 22.4 22.4 0 -11.2627
240 1 24 24 1.6 -11.3349
241 2 25.6 22.4 0 -9.37286
242 1 27.2 24 1.6 -11.3892
243 3 28.8 22.4 0 -10.8557
244 1 30.4 24 1.6 -11.338
245 3 32 22.4 0 -10.6409
246 1 33.6 24 1.6 -11.2732
247 1 35.2 22.4 0 -11.237
248 1 36.8 24 1.6 -11.2532
249 1 38.4 22.4 0 -11.3486
250 3 40 24 1.6 -10.7979
251 1 41.6 22.4 0 -11.339
252 3 43.2 24 1.6 -10.8068
253 1 44.8 22.4 0 -11.3642
254 1 46.4 24 1.6 -11.3539
255 2 48 22.4 0 -9.60896
256 1 49.6 24 1.6 -11.4482
257 2 0 25.6 0 -9.43491
259 1 3.2 25.6 0 -11.0479
261 1 6.4 25.6 0 -11.3051
263 1 9.6 25.6 0 -11.2081
265 1 12.8 25.6 0 -11.0876
267 1 16 25.6 0 -11.1188
269 1 19.2 25.6 0 -11.1582
271 1 22.4 25.6 0 -10.9946
273 2 25.6 25.6 0 -9.47807
275 2 28.8 25.6 0 -9.50092
277 1 32 25.6 0 -11.2483
279 1 35.2 25.6 0 -11.2363
281 1 38.4 25.6 0 -11.4698
283 1 41.6 25.6 0 -11.4837
285 1 44.8 25.6 0 -11.4852
287 3 48 25.6 0 -10.9819
258 1 1.6 27.2 1.6 -11.3347
289 2 0 28.8 0 -9.37917
260 1 4.8 27.2 1.6 -10.9103
291 1 3.2 28.8 0 -11.3279
262 1 8 27.2 1.6 -11.1248
293 1 6.4 28.8 0 -11.4562
264 1 11.2 27.2 1.6 -11.1671
295 1 9.6 28.8 0 -11.4506
266 1 14.4 27.2 1.6 -11.4721
297 2 12.8 28.8 0 -9.4533
268 1 17.6 27.2 1.6 -11.5429
299 2 16 28.8 0 -9.45993
270 1 20.8 27.2 1.6 -11.3486
301 3 19.2 28.8 0 -10.7451
272 1 24 27.2 1.6 -11.2674
303 1 22.4 28.8 0 -11.1931
305 2 25.6 28.8 0 -9.40432
274 1 27.2 27.2 1.6 -11.4788
307 3 28.8 28.8 0 -11.0371
276 1 30.4 27.2 1.6 -11.4557
309 3 32 28.8 0 -10.8948
278 1 33.6 27.2 1.6 -11.2727
311 1 35.2 28.8 0 -11.2804
280 1 36.8 27.2 1.6 -11.2189
313 1 38.4 28.8 0 -11.3289
282 3 40 27.2 1.6 -10.7986
315 1 41.6 28.8 0 -11.3124
284 3 43.2 27.2 1.6 -10.8072
317 1 44.8 28.8 0 -11.3357
286 2 46.4 27.2 1.6 -9.4855
319 2 48 28.8 0 -9.44055
288 1 49.6 27.2 1.6 -11.4414
290 3 1.6 30.4 1.6 -10.9055
321 1 0 32 0 -11.4775
292 2 4.8 30.4 1.6 -9.51449
323 1 3.2 32 0 -11.5758
294 3 8 30.4 1.6 -10.7969
325 1 6.4 32 0 -11.7532
296 1 11.2 30.4 1.6 -11.3804
327 1 9.6 32 0 -11.6872
298 1 14.4 30.4 1.6 -11.4085
329 1 12.8 32 0 -11.486
300 1 17.6 30.4 1.6 -11.615
331 1 16 32 0 -11.3799
302 1 20.8 30.4 1.6 -11.532
333 3 19.2 32 0 -10.9986
304 1 24 30.4 1.6 -11.3853
335 2 22.4 32 0 -9.48139
337 3 25.6 32 0 -10.9031
306 1 27.2 30.4 1.6 -11.6161
339 2 28.8 32 0 -9.54523
308 1 30.4 30.4 1.6 -11.7242
341 3 32 32 0 -10.9973
310 1 33.6 30.4 1.6 -11.46
343 3 35.2 32 0 -10.8067
312 1 36.8 30.4 1.6 -11.2957
345 3 38.4 32 0 -11.0356
314 1 40 30.4 1.6 -11.4483
347 2 41.6 32 0 -9.48694
316 1 43.2 30.4 1.6 -11.3263
349 1 44.8 32 0 -11.2286
318 1 46.4 30.4 1.6 -11.2156
351 1 48 32 0 -11.3299
320 1 49.6 30.4 1.6 -11.3475
322 3 1.6 33.6 1.6 -10.9469
353 1 0 35.2 0 -11.5021
324 2 4.8 33.6 1.6 -9.51437
355 1 3.2 35.2 0 -11.444
326 3 8 33.6 1.6 -10.9963
357 1 6.4 35.2 0 -11.4205
328 3 11.2 33.6 1.6 -10.7403
359 1 9.6 35.2 0 -11.3764
330 1 14.4 33.6 1.6 -11.2717
361 1 12.8 35.2 0 -11.2886
332 1 17.6 33.6 1.6 -11.5155
363 2 16 35.2 0 -9.2395
334 1 20.8 33.6 1.6 -11.5829
365 2 19.2 35.2 0 -9.51582
336 1 24 33.6 1.6 -11.49
367 2 22.4 35.2 0 -9.32891
369 1 25.6 35.2 0 -11.3666
338 1 27.2 33.6 1.6 -11.505
371 1 28.8 35.2 0 -11.3106
340 1 30.4 33.6 1.6 -11.4192
373 1 32 35.2 0 -11.3326
342 1 33.6 33.6 1.6 -11.331
375 1 35.2 35.2 0 -11.29
344 1 36.8 33.6 1.6 -11.2476
377 1 38.4 35.2 0 -11.305
346 1 40 33.6 1.6 -11.5113
379 1 41.6 35.2 0 -11.3424
348 1 43.2 33.6 1.6 -11.4775
381 1 44.8 35.2 0 -11.2213
350 2 46.4 33.6 1.6 -9.37774
383 1 48 35.2 0 -11.4612
352 3 49.6 33.6 1.6 -10.8063
354 1 1.6 36.8 1.6 -11.2228
385 1 0 38.4 0 -11.3458
356 1 4.8 36.8 1.6 -11.0815
387 1 3.2 38.4 0 -11.4195
358 1 8 36.8 1.6 -11.1652
389 1 6.4 38.4 0 -11.304
360 1 11.2 36.8 1.6 -11.2731
391 1 9.6 38.4 0 -11.3151
362 1 14.4 36.8 1.6 -11.152
393 1 12.8 38.4 0 -11.3287
364 1 17.6 36.8 1.6 -11.4787
395 1 16 38.4 0 -11.2908
366 1 20.8 36.8 1.6 -11.3892
397 2 19.2 38.4 0 -9.36173
368 1 24 36.8 1.6 -11.155
399 1 22.4 38.4 0 -11.262
401 1 25.6 38.4 0 -11.3616
370 1 27.2 36.8 1.6 -11.2888
403 1 28.8 38.4 0 -11.4436
372 1 30.4 36.8 1.6 -11.2613
405 1 32 38.4 0 -11.4721
374 2 33.6 36.8 1.6 -9.36692
407 1 35.2 38.4 0 -11.4729
376 1 36.8 36.8 1.6 -11.0824
409 1 38.4 38.4 0 -11.3348
378 1 40 36.8 1.6 -11.2755
411 1 41.6 38.4 0 -11.237
380 1 43.2 36.8 1.6 -11.2481
413 1 44.8 38.4 0 -11.1678
382 1 46.4 36.8 1.6 -11.2982
415 1 48 38.4 0 -11.3782
384 1 49.6 36.8 1.6 -11.2933
386 1 1.6 40 1.6 -11.1604
417 1 0 41.6 0 -11.2937
388 2 4.8 40 1.6 -9.27113
419 1 3.2 41.6 0 -11.5361
390 1 8 40 1.6 -11.2263
421 1 6.4 41.6 0 -11.3844
392 3 11.2 40 1.6 -10.7524
423 1 9.6 41.6 0 -11.3887
394 2 14.4 40 1.6 -9.45261
425 1 12.8 41.6 0 -11.5578
396 1 17.6 40 1.6 -11.5059
427 1 16 41.6 0 -11.3334
398 1 20.8 40 1.6 -11.3904
429 2 19.2 41.6 0 -9.42284
400 1 24 40 1.6 -11.2357
431 1 22.4 41.6 0 -11.3616
433 1 25.6 41.6 0 -11.4788
402 1 27.2 40 1.6 -11.3325
435 1 28.8 41.6 0 -11.4081
404 1 30.4 40 1.6 -11.2229
437 1 32 41.6 0 -11.2662
406 2 33.6 40 1.6 -9.36611
439 1 35.2 41.6 0 -11.444
408 1 36.8 40 1.6 -11.2207
441 1 38.4 41.6 0 -11.5444
410 1 40 40 1.6 -11.1768
443 1 41.6 41.6 0 -11.4201
412 1 43.2 40 1.6 -11.2181
445 1 44.8 41.6 0 -11.5019
414 2 46.4 40 1.6 -9.37335
447 1 48 41.6 0 -11.4367
416 1 49.6 40 1.6 -11.1316
418 1 1.6 43.2 1.6 -11.2191
449 1 0 44.8 0 -11.5981
420 2 4.8 43.2 1.6 -9.41516
451 1 3.2 44.8 0 -11.5451
422 1 8 43.2 1.6 -11.0241
453 1 6.4 44.8 0 -11.2325
424 1 11.2 43.2 1.6 -11.3297
455 1 9.6 44.8 0 -11.2937
426 2 14.4 43.2 1.6 -9.36611
457 1 12.8 44.8 0 -11.6192
428 2 17.6 43.2 1.6 -9.41787
459 1 16 44.8 0 -11.5005
430 1 20.8 43.2 1.6 -11.4009
461 1 19.2 44.8 0 -11.5457
432 1 24 43.2 1.6 -11.3277
463 1 22.4 44.8 0 -11.3045
465 1 25.6 44.8 0 -11.3866
434 1 27.2 43.2 1.6 -11.4438
467 1 28.8 44.8 0 -11.4256
436 1 30.4 43.2 1.6 -11.1466
469 1 32 44.8 0 -11.137
438 1 33.6 43.2 1.6 -11.1529
471 1 35.2 44.8 0 -11.1993
440 3 36.8 43.2 1.6 -10.7545
473 1 38.4 44.8 0 -11.5213
442 2 40 43.2 1.6 -9.44937
475 1 41.6 44.8 0 -11.4587
444 3 43.2 43.2 1.6 -10.7543
477 1 44.8 44.8 0 -11.5019
446 3 46.4 43.2 1.6 -10.9486
479 1 48 44.8 0 -11.6253
448 1 49.6 43.2 1.6 -11.2215
450 3 1.6 46.4 1.6 -11.0408
481 1 0 48 0 -11.5981
452 2 4.8 46.4 1.6 -9.51961
483 1 3.2 48 0 -11.6824
454 1 8 46.4 1.6 -11.2279
485 1 6.4 48 0 -11.321
456 3 11.2 46.4 1.6 -10.7969
487 1 9.6 48 0 -11.4608
458 3 14.4 46.4 1.6 -11.0001
489 1 12.8 48 0 -11.597
460 2 17.6 46.4 1.6 -9.67729
491 1 16 48 0 -11.4579
462 3 20.8 46.4 1.6 -10.8336
493 1 19.2 48 0 -11.5084
464 1 24 46.4 1.6 -11.4435
495 1 22.4 48 0 -11.4013
497 2 25.6 48 0 -9.44812
466 1 27.2 46.4 1.6 -11.5882
499 2 28.8 48 0 -9.6113
468 1 30.4 46.4 1.6 -11.4759
501 2 32 48 0 -9.54388
470 1 33.6 46.4 1.6 -11.2552
503 2 35.2 48 0 -9.33339
472 1 36.8 46.4 1.6 -11.2851
505 2 38.4 48 0 -9.46106
474 1 40 46.4 1.6 -11.3431
507 1 41.6 48 0 -11.1684
476 1 43.2 46.4 1.6 -11.2468
509 1 44.8 48 0 -11.2586
478 2 46.4 46.4 1.6 -9.51488
511 1 48 48 0 -11.4729
480 2 49.6 46.4 1.6 -9.40361
482 3 1.6 49.6 1.6 -10.9497
484 2 4.8 49.6 1.6 -9.58749
486 2 8 49.6 1.6 -9.43392
488 2 11.2 49.6 1.6 -9.38954
490 1 14.4 49.6 1.6 -11.2608
492 1 17.6 49.6 1.6 -11.4059
494 1 20.8 49.6 1.6 -11.4311
496 1 24 49.6 1.6 -11.2852
498 1 27.2 49.6 1.6 -11.4621
500 1 30.4 49.6 1.6 -11.4592
502 2 33.6 49.6 1.6 -9.44948
504 1 36.8 49.6 1.6 -11.4767
506 1 40 49.6 1.6 -11.3496
508 1 43.2 49.6 1.6 -11.2214
510 2 46.4 49.6 1.6 -9.36666
512 1 49.6 49.6 1.6 -11.1144
513 1 0 0 3.2 -11.343
514 2 1.6 1.6 4.8 -9.35093
515 1 3.2 0 3.2 -11.4562
516 1 4.8 1.6 4.8 -11.1922
517 1 6.4 0 3.2 -11.5019
518 2 8 1.6 4.8 -9.36186
519 1 9.6 0 3.2 -11.3908
520 1 11.2 1.6 4.8 -11.25
521 1 12.8 0 3.2 -11.1273
522 1 14.4 1.6 4.8 -11.2744
523 1 16 0 3.2 -11.116
524 1 17.6 1.6 4.8 -11.3304
525 3 19.2 0 3.2 -10.7095
526 1 20.8 1.6 4.8 -11.2983
527 1 22.4 0 3.2 -11.1627
528 1 24 1.6 4.8 -10.92
529 1 25.6 0 3.2 -11.1867
530 1 27.2 1.6 4.8 -11.1421
531 1 28.8 0 3.2 -11.2256
532 1 30.4 1.6 4.8 -11.3535
533 2 32 0 3.2 -9.37736
534 1 33.6 1.6 4.8 -11.351
535 1 35.2 0 3.2 -11.2923
536 1 36.8 1.6 4.8 -11.5256
537 2 38.4 0 3.2 -9.49382
538 1 40 1.6 4.8 -11.3729
539 1 41.6 0 3.2 -11.361
540 2 43.2 1.6 4.8 -9.41362
541 1 44.8 0 3.2 -11.4374
542 1 46.4 1.6 4.8 -11.2942
543 1 48 0 3.2 -11.2974
544 2 49.6 1.6 4.8 -9.32927
545 1 0 3.2 3.2 -11.2181
546 1 1.6 4.8 4.8 -11.1273
547 1 3.2 3.2 3.2 -11.1805
548 2 4.8 4.8 4.8 -9.23843
549 1 6.4 3.2 3.2 -11.2719
550 1 8 4.8 4.8 -11.3136
551 1 9.6 3.2 3.2 -11.3212
552 1 11.2 4.8 4.8 -11.47
553 2 12.8 3.2 3.2 -9.36147
554 1 14.4 4.8 4.8 -11.3711
555 1 16 3.2 3.2 -11.2234
556 1 17.6 4.8 4.8 -11.3265
557 3 19.2 3.2 3.2 -10.7541
558 2 20.8 4.8 4.8 -9.37723
559 1 22.4 3.2 3.2 -11.327
560 1 24 4.8 4.8 -11.1212
561 1 25.6 3.2 3.2 -11.2875
562 1 27.2 4.8 4.8 -11.0659
563 2 28.8 3.2 3.2 -9.41626
564 1 30.4 4.8 4.8 -11.2575
565 2 32 3.2 3.2 -9.47828
566 1 33.6 4.8 4.8 -11.3403
567 2 35.2 3.2 3.2 -9.32069
568 1 36.8 4.8 4.8 -11.5355
569 2 38.4 3.2 3.2 -9.5515
570 1 40 4.8 4.8 -11.4504
571 1 41.6 3.2 3.2 -11.2708
572 1 43.2 4.8 4.8 -11.2278
573 1 44.8 3.2 3.2 -11.2754
574 1 46.4 4.8 4.8 -11.2055
575 2 48 3.2 3.2 -9.28824
576 1 49.6 4.8 4.8 -11.279
577 2 0 6.4 3.2 -9.31302
578 1 1.6 8 4.8 -11.3273
579 1 3.2 6.4 3.2 -11.2627
580 1 4.8 8 4.8 -11.4629
581 1 6.4 6.4 3.2 -11.2973
582 1 8 8 4.8 -11.3942
583 3 9.6 6.4 3.2 -10.8065
584 1 11.2 8 4.8 -11.464
585 3 12.8 6.4 3.2 -10.9062
586 2 14.4 8 4.8 -9.33642
587 1 16 6.4 3.2 -11.1777
588 1 17.6 8 4.8 -11.1536
589 1 19.2 6.4 3.2 -11.3656
590 2 20.8 8 4.8 -9.39808
591 1 22.4 6.4 3.2 -11.4939
592 2 24 8 4.8 -9.31037
593 1 25.6 6.4 3.2 -11.2181
594 1 27.2 8 4.8 -11.113
595 1 28.8 6.4 3.2 -11.1191
596 1 30.4 8 4.8 -11.1798
597 1 32 6.4 3.2 -11.1646
598 2 33.6 8 4.8 -9.13584
599 1 35.2 6.4 3.2 -11.1627
600 1 36.8 8 4.8 -11.3118
601 3 38.4 6.4 3.2 -10.8551
602 1 40 8 4.8 -11.3887
603 2 41.6 6.4 3.2 -9.28767
604 1 43.2 8 4.8 -11.2507
605 2 44.8 6.4 3.2 -9.36794
606 1 46.4 8 4.8 -11.4606
607 3 48 6.4 3.2 -10.8079
608 1 49.6 8 4.8 -11.3959
609 1 0 9.6 3.2 -11.2586
610 1 1.6 11.2 4.8 -11.4729
611 3 3.2 9.6 3.2 -10.8504
612 1 4.8 11.2 4.8 -11.6893
613 3 6.4 9.6 3.2 -10.7977
614 1 8 11.2 4.8 -11.4456
615 1 9.6 9.6 3.2 -11.2504
616 3 11.2 11.2 4.8 -10.7975
617 1 12.8 9.6 3.2 -11.423
618 3 14.4 11.2 4.8 -10.9519
619 1 16 9.6 3.2 -11.3028
620 2 17.6 11.2 4.8 -9.40486
621 1 19.2 9.6 3.2 -11.2748
622 1 20.8 11.2 4.8 -11.1891
623 1 22.4 9.6 3.2 -11.4352
624 2 24 11.2 4.8 -9.41231
625 1 25.6 9.6 3.2 -11.4219
626 2 27.2 11.2 4.8 -9.45505
627 2 28.8 9.6 3.2 -9.49612
628 2 30.4 11.2 4.8 -9.56232
629 1 32 9.6 3.2 -11.4967
630 2 33.6 11.2 4.8 -9.58432
631 1 35.2 9.6 3.2 -11.3874
632 2 36.8 11.2 4.8 -9.44932
633 1 38.4 9.6 3.2 -11.4113
634 2 40 11.2 4.8 -9.31089
635 1 41.6 9.6 3.2 -11.2285
636 1 43.2 11.2 4.8 -11.252
637 2 44.8 9.6 3.2 -9.32136
638 1 46.4 11.2 4.8 -11.5508
639 2 48 9.6 3.2 -9.43919
640 1 49.6 11.2 4.8 -11.4685
641 1 0 12.8 3.2 -11.1516
642 1 1.6 14.4 4.8 -11.4674
643 2 3.2 12.8 3.2 -9.54562
644 1 4.8 14.4 4.8 -11.6502
645 3 6.4 12.8 3.2 -10.8543
646 1 8 14.4 4.8 -11.3234
647 1 9.6 12.8 3.2 -11.4077
648 3 11.2 14.4 4.8 -10.9519
649 1 12.8 12.8 3.2 -11.604
650 2 14.4 14.4 4.8 -9.42452
651 1 16 12.8 3.2 -11.5161
652 1 17.6 14.4 4.8 -11.225
653 1 19.2 12.8 3.2 -11.3094
654 1 20.8 14.4 4.8 -11.0806
655 1 22.4 12.8 3.2 -11.3792
656 1 24 14.4 4.8 -11.113
657 1 25.6 12.8 3.2 -11.2651
658 1 27.2 14.4 4.8 -11.157
659 1 28.8 12.8 3.2 -11.3206
660 2 30.4 14.4 4.8 -9.40431
661 1 32 12.8 3.2 -11.471
662 3 33.6 14.4 4.8 -10.7995
663 1 35.2 12.8 3.2 -11.5074
664 1 36.8 14.4 4.8 -11.2887
665 1 38.4 12.8 3.2 -11.4717
666 2 40 14.4 4.8 -9.37785
667 1 41.6 12.8 3.2 -11.3354
668 1 43.2 14.4 4.8 -11.4851
669 2 44.8 12.8 3.2 -9.39797
670 1 46.4 14.4 4.8 -11.6156
671 2 48 12.8 3.2 -9.4814
672 1 49.6 14.4 4.8 -11.4204
673 1 0 16 3.2 -11.0779
674 1 1.6 17.6 4.8 -11.3586
675 2 3.2 16 3.2 -9.60063
676 3 4.8 17.6 4.8 -10.9762
677 2 6.4 16 3.2 -9.41056
678 1 8 17.6 4.8 -11.0605
679 1 9.6 16 3.2 -11.3321
680 1 11.2 17.6 4.8 -11.2305
681 1 12.8 16 3.2 -11.532
682 1 14.4 17.6 4.8 -11.1494
683 1 16 16 3.2 -11.5091
684 2 17.6 17.6 4.8 -9.33641
685 1 19.2 16 3.2 -11.4213
686 1 20.8 17.6 4.8 -11.1562
687 1 22.4 16 3.2 -11.2106
688 1 24 17.6 4.8 -10.9171
689 1 25.6 16 3.2 -11.1818
690 2 27.2 17.6 4.8 -9.3629
691 1 28.8 16 3.2 -11.3844
692 3 30.4 17.6 4.8 -10.9022
693 1 32 16 3.2 -11.5061
694 2 33.6 17.6 4.8 -9.54656
695 1 35.2 16 3.2 -11.3969
696 2 36.8 17.6 4.8 -9.43932
697 1 38.4 16 3.2 -11.3989
698 1 40 17.6 4.8 -11.3603
699 1 41.6 16 3.2 -11.464
700 1 43.2 17.6 4.8 -11.4043
701 2 44.8 16 3.2 -9.3727
702 1 46.4 17.6 4.8 -11.2511
703 1 48 16 3.2 -11.2281
704 1 49.6 17.6 4.8 -11.1165
705 1 0 19.2 3.2 -11.0817
706 2 1.6 20.8 4.8 -9.27086
707 1 3.2 19.2 3.2 -11.3801
708 2 4.8 20.8 4.8 -9.5157
709 1 6.4 19.2 3.2 -11.3722
710 1 8 20.8 4.8 -11.224
711 1 9.6 19.2 3.2 -11.3462
712 3 11.2 20.8 4.8 -10.6485
713 1 12.8 19.2 3.2 -11.4251
714 1 14.4 20.8 4.8 -11.1192
715 1 16 19.2 3.2 -11.3853
716 1 17.6 20.8 4.8 -11.1536
717 1 19.2 19.2 3.2 -11.5091
718 2 20.8 20.8 4.8 -9.33727
719 1 22.4 19.2 3.2 -11.3051
720 1 24 20.8 4.8 -11.0056
721 1 25.6 19.2 3.2 -11.1792
722 1 27.2 20.8 4.8 -11.1385
723 1 28.8 19.2 3.2 -11.346
724 1 30.4 20.8 4.8 -11.2811
725 1 32 19.2 3.2 -11.3755
726 1 33.6 20.8 4.8 -11.1265
727 1 35.2 19.2 3.2 -11.3535
728 2 36.8 20.8 4.8 -9.13624
729 1 38.4 19.2 3.2 -11.3095
730 1 40 20.8 4.8 -11.148
731 1 41.6 19.2 3.2 -11.2974
732 1 43.2 20.8 4.8 -11.2974
733 1 44.8 19.2 3.2 -11.2389
734 1 46.4 20.8 4.8 -11.2403
735 1 48 19.2 3.2 -11.0612
736 1 49.6 20.8 4.8 -11.1858
737 1 0 22.4 3.2 -11.3485
738 3 1.6 24 4.8 -10.9715
739 1 3.2 22.4 3.2 -11.3874
740 2 4.8 24 4.8 -9.61107
741 1 6.4 22.4 3.2 -11.4778
742 3 8 24 4.8 -10.7405
743 1 9.6 22.4 3.2 -11.4781
744 1 11.2 24 4.8 -11.2018
745 1 12.8 22.4 3.2 -11.3321
746 1 14.4 24 4.8 -11.1113
747 1 16 22.4 3.2 -11.191
748 1 17.6 24 4.8 -11.2377
749 1 19.2 22.4 3.2 -11.3274
750 1 20.8 24 4.8 -11.2715
751 1 22.4 22.4 3.2 -11.2888
752 1 24 24 4.8 -11.2169
753 1 25.6 22.4 3.2 -11.1122
754 1 27.2 24 4.8 -11.339
755 1 28.8 22.4 3.2 -11.1222
756 1 30.4 24 4.8 -11.3176
757 2 32 22.4 3.2 -9.18378
758 1 33.6 24 4.8 -11.3584
759 1 35.2 22.4 3.2 -11.1666
760 1 36.8 24 4.8 -11.2396
761 1 38.4 22.4 3.2 -11.1296
762 1 40 24 4.8 -11.165
763 1 41.6 22.4 3.2 -11.331
764 1 43.2 24 4.8 -11.3653
765 1 44.8 22.4 3.2 -11.3332
766 1 46.4 24 4.8 -11.393
767 1 48 22.4 3.2 -11.244
768 1 49.6 24 4.8 -11.4238
769 2 0 25.6 3.2 -9.45022
771 1 3.2 25.6 3.2 -11.2962
773 1 6.4 25.6 3.2 -11.2839
775 1 9.6 25.6 3.2 -11.1972
777 2 12.8 25.6 3.2 -9.27177
779 3 16 25.6 3.2 -10.756
781 3 19.2 25.6 3.2 -10.7562
783 2 22.4 25.6 3.2 -9.28793
785 2 25.6 25.6 3.2 -9.36705
787 1 28.8 25.6 3.2 -11.1873
789 1 32 25.6 3.2 -11.1868
791 3 35.2 25.6 3.2 -10.5264
793 1 38.4 25.6 3.2 -11.3691
795 1 41.6 25.6 3.2 -11.4826
797 1 44.8 25.6 3.2 -11.3659
799 1 48 25.6 3.2 -11.2588
770 2 1.6 27.2 4.8 -9.57556
801 1 0 28.8 3.2 -11.4708
772 1 4.8 27.2 4.8 -11.3232
803 1 3.2 28.8 3.2 -11.3351
774 1 8 27.2 4.8 -11.3079
805 1 6.4 28.8 3.2 -11.1972
776 1 11.2 27.2 4.8 -11.1785
807 1 9.6 28.8 3.2 -11.1851
778 1 14.4 27.2 4.8 -11.3779
809 2 12.8 28.8 3.2 -9.31089
780 1 17.6 27.2 4.8 -11.3281
811 2 16 28.8 3.2 -9.51512
782 1 20.8 27.2 4.8 -11.3291
813 2 19.2 28.8 3.2 -9.51436
784 1 24 27.2 4.8 -11.2188
815 1 22.4 28.8 3.2 -11.0806
817 1 25.6 28.8 3.2 -11.1494
786 1 27.2 27.2 4.8 -11.4316
819 2 28.8 28.8 3.2 -9.47293
788 1 30.4 27.2 4.8 -11.5061
821 2 32 28.8 3.2 -9.48102
790 1 33.6 27.2 4.8 -11.5837
823 1 35.2 28.8 3.2 -11.1469
792 1 36.8 27.2 4.8 -11.3731
825 1 38.4 28.8 3.2 -11.1902
794 2 40 27.2 4.8 -9.2879
827 1 41.6 28.8 3.2 -11.4272
796 1 43.2 27.2 4.8 -11.3224
829 1 44.8 28.8 3.2 -11.1938
798 1 46.4 27.2 4.8 -11.2396
831 1 48 28.8 3.2 -11.1429
800 1 49.6 27.2 4.8 -11.349
802 3 1.6 30.4 4.8 -11.0458
833 1 0 32 3.2 -11.6187
804 1 4.8 30.4 4.8 -11.2586
835 1 3.2 32 3.2 -11.5626
806 1 8 30.4 4.8 -11.2906
837 1 6.4 32 3.2 -11.4086
808 1 11.2 30.4 4.8 -11.0832
839 1 9.6 32 3.2 -11.3367
810 1 14.4 30.4 4.8 -11.3095
841 1 12.8 32 3.2 -11.1814
812 1 17.6 30.4 4.8 -11.5061
843 2 16 32 3.2 -9.38862
814 1 20.8 30.4 4.8 -11.3035
845 3 19.2 32 3.2 -11.0437
816 1 24 30.4 4.8 -11.2206
847 2 22.4 32 3.2 -9.36569
849 2 25.6 32 3.2 -9.58805
818 1 27.2 30.4 4.8 -11.5061
851 3 28.8 32 3.2 -10.9963
820 1 30.4 30.4 4.8 -11.6606
853 2 32 32 3.2 -9.47333
822 1 33.6 30.4 4.8 -11.5361
855 1 35.2 32 3.2 -11.2297
824 1 36.8 30.4 4.8 -11.377
857 2 38.4 32 3.2 -9.44909
826 1 40 30.4 4.8 -11.5233
859 3 41.6 32 3.2 -10.9956
828 1 43.2 30.4 4.8 -11.4183
861 2 44.8 32 3.2 -9.44535
830 1 46.4 30.4 4.8 -11.1503
863 1 48 32 3.2 -11.2937
832 2 49.6 30.4 4.8 -9.31261
834 3 1.6 33.6 4.8 -10.9596
865 1 0 35.2 3.2 -11.4436
836 1 4.8 33.6 4.8 -11.2586
867 1 3.2 35.2 3.2 -11.3355
838 1 8 33.6 4.8 -11.2788
869 1 6.4 35.2 3.2 -11.2571
840 1 11.2 33.6 4.8 -11.1901
871 2 9.6 35.2 3.2 -9.40875
842 1 14.4 33.6 4.8 -11.3375
873 1 12.8 35.2 3.2 -11.1616
844 1 17.6 33.6 4.8 -11.5493
875 1 16 35.2 3.2 -11.2626
846 1 20.8 33.6 4.8 -11.4118
877 2 19.2 35.2 3.2 -9.41159
848 1 24 33.6 4.8 -11.4907
879 1 22.4 35.2 3.2 -11.2282
881 2 25.6 35.2 3.2 -9.30984
850 1 27.2 33.6 4.8 -11.5833
883 2 28.8 35.2 3.2 -9.36693
852 1 30.4 33.6 4.8 -11.3839
885 1 32 35.2 3.2 -11.2709
854 1 33.6 33.6 4.8 -11.4037
887 1 35.2 35.2 3.2 -11.2575
856 1 36.8 33.6 4.8 -11.4062
889 1 38.4 35.2 3.2 -11.158
858 1 40 33.6 4.8 -11.5976
891 3 41.6 35.2 3.2 -10.9512
860 1 43.2 33.6 4.8 -11.7508
893 2 44.8 35.2 3.2 -9.48228
862 1 46.4 33.6 4.8 -11.4408
895 1 48 35.2 3.2 -11.3336
864 1 49.6 33.6 4.8 -11.2649
866 2 1.6 36.8 4.8 -9.50255
897 2 0 38.4 3.2 -9.32307
868 1 4.8 36.8 4.8 -11.3123
899 1 3.2 38.4 3.2 -11.2458
870 1 8 36.8 4.8 -11.4303
901 1 6.4 38.4 3.2 -11.1619
872 1 11.2 36.8 4.8 -11.3975
903 2 9.6 38.4 3.2 -9.42239
874 1 14.4 36.8 4.8 -11.3926
905 1 12.8 38.4 3.2 -11.3216
876 1 17.6 36.8 4.8 -11.5231
907 2 16 38.4 3.2 -9.37235
878 1 20.8 36.8 4.8 -11.3968
909 3 19.2 38.4 3.2 -10.9029
880 1 24 36.8 4.8 -11.2674
911 1 22.4 38.4 3.2 -11.1117
913 1 25.6 38.4 3.2 -11.1213
882 1 27.2 36.8 4.8 -11.3614
915 2 28.8 38.4 3.2 -9.32187
884 1 30.4 36.8 4.8 -11.2907
917 1 32 38.4 3.2 -11.4086
886 3 33.6 36.8 4.8 -10.8493
919 1 35.2 38.4 3.2 -11.4969
888 2 36.8 36.8 4.8 -9.36306
921 1 38.4 38.4 3.2 -11.1903
890 1 40 36.8 4.8 -11.4749
923 3 41.6 38.4 3.2 -10.6952
892 1 43.2 36.8 4.8 -11.7096
925 1 44.8 38.4 3.2 -11.3287
894 1 46.4 36.8 4.8 -11.5413
927 2 48 38.4 3.2 -9.37334
896 1 49.6 36.8 4.8 -11.4404
898 1 1.6 40 4.8 -11.3371
929 1 0 41.6 3.2 -11.1525
900 1 4.8 40 4.8 -11.3305
931 1 3.2 41.6 3.2 -11.1758
902 1 8 40 4.8 -11.3355
933 1 6.4 41.6 3.2 -11.2188
904 1 11.2 40 4.8 -11.3842
935 1 9.6 41.6 3.2 -11.2034
906 1 14.4 40 4.8 -11.2395
937 1 12.8 41.6 3.2 -11.3262
908 1 17.6 40 4.8 -11.5047
939 1 16 41.6 3.2 -11.3036
910 1 20.8 40 4.8 -11.5943
941 2 19.2 41.6 3.2 -9.56599
912 1 24 40 4.8 -11.4251
943 2 22.4 41.6 3.2 -9.36612
945 3 25.6 41.6 3.2 -10.8998
914 1 27.2 40 4.8 -11.5061
947 2 28.8 41.6 3.2 -9.43468
916 1 30.4 40 4.8 -11.3716
949 1 32 41.6 3.2 -11.3305
918 3 33.6 40 4.8 -11.0468
951 1 35.2 41.6 3.2 -11.5837
920 2 36.8 40 4.8 -9.40486
953 1 38.4 41.6 3.2 -11.336
922 1 40 40 4.8 -11.371
955 1 41.6 41.6 3.2 -11.3446
924 1 43.2 40 4.8 -11.4293
957 1 44.8 41.6 3.2 -11.3417
926 1 46.4 40 4.8 -11.3938
959 1 48 41.6 3.2 -11.3718
928 1 49.6 40 4.8 -11.3724
930 2 1.6 43.2 4.8 -9.38941
961 1 0 44.8 3.2 -11.4316
932 1 4.8 43.2 4.8 -11.2918
963 1 3.2 44.8 3.2 -11.5635
934 1 8 43.2 4.8 -11.1675
965 2 6.4 44.8 3.2 -9.32455
936 2 11.2 43.2 4.8 -9.13569
967 1 9.6 44.8 3.2 -11.2271
938 1 14.4 43.2 4.8 -11.002
969 1 12.8 44.8 3.2 -11.3584
940 1 17.6 43.2 4.8 -11.279
971 1 16 44.8 3.2 -11.3451
942 1 20.8 43.2 4.8 -11.4665
973 1 19.2 44.8 3.2 -11.4261
944 1 24 43.2 4.8 -11.5578
975 1 22.4 44.8 3.2 -11.339
977 3 25.6 44.8 3.2 -10.8089
946 1 27.2 43.2 4.8 -11.6229
979 2 28.8 44.8 3.2 -9.47384
948 1 30.4 43.2 4.8 -11.3759
981 1 32 44.8 3.2 -11.2196
950 3 33.6 43.2 4.8 -10.6948
983 1 35.2 44.8 3.2 -11.291
952 3 36.8 43.2 4.8 -10.799
985 1 38.4 44.8 3.2 -11.3293
954 1 40 43.2 4.8 -11.307
987 1 41.6 44.8 3.2 -11.3963
956 1 43.2 43.2 4.8 -11.3935
989 1 44.8 44.8 3.2 -11.5632
958 2 46.4 43.2 4.8 -9.43957
991 1 48 44.8 3.2 -11.4907
960 2 49.6 43.2 4.8 -9.36106
962 3 1.6 46.4 4.8 -10.9973
993 1 0 48 3.2 -11.4851
964 2 4.8 46.4 4.8 -9.55994
995 1 3.2 48 3.2 -11.7508
966 1 8 46.4 4.8 -11.1447
997 1 6.4 48 3.2 -11.5599
968 1 11.2 46.4 4.8 -11.1615
999 1 9.6 48 3.2 -11.3511
970 1 14.4 46.4 4.8 -11.2717
1001 1 12.8 48 3.2 -11.3139
972 1 17.6 46.4 4.8 -11.4405
1003 2 16 48 3.2 -9.49213
974 1 20.8 46.4 4.8 -11.5474
1005 3 19.2 48 3.2 -11.0769
976 1 24 46.4 4.8 -11.5194
1007 2 22.4 48 3.2 -9.5423
1009 3 25.6 48 3.2 -10.9971
978 1 27.2 46.4 4.8 -11.6478
1011 3 28.8 48 3.2 -11.0453
980 1 30.4 46.4 4.8 -11.4584
1013 3 32 48 3.2 -10.8411
982 1 33.6 46.4 4.8 -11.2539
1015 1 35.2 48 3.2 -11.3156
984 1 36.8 46.4 4.8 -11.2454
1017 2 38.4 48 3.2 -9.48513
986 1 40 46.4 4.8 -11.3608
1019 2 41.6 48 3.2 -9.37155
988 3 43.2 46.4 4.8 -10.7984
1021 1 44.8 48 3.2 -11.5586
990 2 46.4 46.4 4.8 -9.47396
1023 1 48 48 3.2 -11.3901
992 1 49.6 46.4 4.8 -11.1865
994 3 1.6 49.6 4.8 -11.0402
996 3 4.8 49.6 4.8 -10.9985
998 3 8 49.6 4.8 -10.8511
1000 1 11.2 49.6 4.8 -11.1619
1002 1 14.4 49.6 4.8 -11.1765
1004 1 17.6 49.6 4.8 -11.4234
1006 1 20.8 49.6 4.8 -11.423
1008 1 24 49.6 4.8 -11.2969
1010 1 27.2 49.6 4.8 -11.3649
1012 1 30.4 49.6 4.8 -11.3756
1014 1 33.6 49.6 4.8 -11.3588
1016 2 36.8 49.6 4.8 -9.47791
1018 1 40 49.6 4.8 -11.4549
1020 2 43.2 49.6 4.8 -9.56242
1022 3 46.4 49.6 4.8 -10.8006
1024 1 49.6 49.6 4.8 -11.224
1025 1 0 0 6.4 -11.559
1026 2 1.6 1.6 8 -9.31037
1027 1 3.2 0 6.4 -11.5019
1028 1 4.8 1.6 8 -11.2552
1029 1 6.4 0 6.4 -11.5012
1030 2 8 1.6 8 -9.41884
1031 1 9.6 0 6.4 -11.376
1032 1 11.2 1.6 8 -11.3723
1033 2 12.8 0 6.4 -9.13597
1034 1 14.4 1.6 8 -11.3891
1035 1 16 0 6.4 -11.1914
1036 2 17.6 1.6 8 -9.42535
1037 1 19.2 0 6.4 -11.3148
1038 2 20.8 1.6 8 -9.41244
1039 1 22.4 0 6.4 -11.1106
1040 1 24 1.6 8 -11.2802
1041 1 25.6 0 6.4 -11.0355
1042 1 27.2 1.6 8 -11.4213
1043 1 28.8 0 6.4 -11.1196
1044 1 30.4 1.6 8 -11.3839
1045 1 32 0 6.4 -11.1776
1046 1 33.6 1.6 8 -11.4137
1047 1 35.2 0 6.4 -11.3449
1048 1 36.8 1.6 8 -11.5888
1049 2 38.4 0 6.4 -9.6072
1050 1 40 1.6 8 -11.4433
1051 1 41.6 0 6.4 -11.3724
1052 3 43.2 1.6 8 -10.9045
1053 1 44.8 0 6.4 -11.5892
1054 2 46.4 1.6 8 -9.43881
1055 1 48 0 6.4 -11.4943
1056 2 49.6 1.6 8 -9.39808
1057 1 0 3.2 6.4 -11.2575
1058 1 1.6 4.8 8 -11.0828
1059 1 3.2 3.2 6.4 -11.2737
1060 2 4.8 4.8 8 -9.33021
1061 1 6.4 3.2 6.4 -11.3303
1062 1 8 4.8 8 -11.4627
1063 1 9.6 3.2 6.4 -11.3193
1064 1 11.2 4.8 8 -11.5831
1065 2 12.8 3.2 6.4 -9.43981
1066 1 14.4 4.8 8 -11.4864
1067 2 16 3.2 6.4 -9.32937
1068 2 17.6 4.8 8 -9.50642
1069 1 19.2 3.2 6.4 -11.5037
1070 2 20.8 4.8 8 -9.47829
1071 1 22.4 3.2 6.4 -11.1692
1072 1 24 4.8 8 -11.1938
1073 1 25.6 3.2 6.4 -11.0029
1074 1 27.2 4.8 8 -11.3471
1075 2 28.8 3.2 6.4 -9.36744
1076 1 30.4 4.8 8 -11.2969
1077 2 32 3.2 6.4 -9.40816
1078 1 33.6 4.8 8 -11.2958
1079 2 35.2 3.2 6.4 -9.48915
1080 1 36.8 4.8 8 -11.5653
1081 3 38.4 3.2 6.4 -10.9986
1082 1 40 4.8 8 -11.49
1083 1 41.6 3.2 6.4 -11.3233
1084 2 43.2 4.8 8 -9.28726
1085 1 44.8 3.2 6.4 -11.303
1086 1 46.4 4.8 8 -11.1578
1087 1 48 3.2 6.4 -11.2421
1088 1 49.6 4.8 8 -11.0002
1089 1 0 6.4 6.4 -11.0066
1090 1 1.6 8 8 -11.1391
1091 1 3.2 6.4 6.4 -11.2383
1092 2 4.8 8 8 -9.33143
1093 1 6.4 6.4 6.4 -11.3484
1094 1 8 8 8 -11.3326
1095 3 9.6 6.4 6.4 -10.7088
1096 1 11.2 8 8 -11.4432
1097 1 12.8 6.4 6.4 -11.3527
1098 1 14.4 8 8 -11.4123
1099 1 16 6.4 6.4 -11.3018
1100 2 17.6 8 8 -9.46054
1101 1 19.2 6.4 6.4 -11.4331
1102 2 20.8 8 8 -9.31037
1103 1 22.4 6.4 6.4 -11.353