 # Bcc Mo oriented X=[100] Y=[010] Z=[001].
  
        8192  atoms
           4  atom types
 
      0.000000000000      51.200000000000  xlo xhi
      0.000000000000      51.200000000000  ylo yhi
      0.000000000000      51.200000000000  zlo zhi
 
 
 
Atoms # atomic

1 3 0.0 0.0 0.0
2 1 1.6 1.6 1.6
3 3 3.2 0.0 0.0
4 1 4.8 1.6 1.6
5 3 6.4 0.0 0.0
6 1 8.0 1.6 1.6
7 3 9.6 0.0 0.0
8 1 11.2 1.6 1.6
9 3 12.8 0.0 0.0
10 1 14.4 1.6 1.6
11 3 16.0 0.0 0.0
12 1 17.6 1.6 1.6
13 3 19.2 0.0 0.0
14 1 20.8 1.6 1.6
15 3 22.4 0.0 0.0
16 1 24.0 1.6 1.6
17 1 25.6 0.0 0.0
18 3 27.2 1.6 1.6
19 1 28.8 0.0 0.0
20 3 30.4 1.6 1.6
21 1 32.0 0.0 0.0
22 3 33.6 1.6 1.6
23 3 35.2 0.0 0.0
24 1 36.8 1.6 1.6
25 3 38.4 0.0 0.0
26 1 40.0 1.6 1.6
27 3 41.6 0.0 0.0
28 1 43.2 1.6 1.6
29 3 44.8 0.0 0.0
30 1 46.4 1.6 1.6
31 3 48.0 0.0 0.0
32 1 49.6 1.6 1.6
33 3 0.0 3.2 0.0
34 1 1.6 4.8 1.6
35 3 3.2 3.2 0.0
36 1 4.8 4.8 1.6
37 3 6.4 3.2 0.0
38 1 8.0 4.8 1.6
39 3 9.6 3.2 0.0
40 1 11.2 4.8 1.6
41 3 12.8 3.2 0.0
42 1 14.4 4.8 1.6
43 3 16.0 3.2 0.0
44 1 17.6 4.8 1.6
45 3 19.2 3.2 0.0
46 1 20.8 4.8 1.6
47 3 22.4 3.2 0.0
48 1 24.0 4.8 1.6
49 1 25.6 3.2 0.0
50 3 27.2 4.8 1.6
51 1 28.8 3.2 0.0
52 3 30.4 4.8 1.6
53 1 32.0 3.2 0.0
54 3 33.6 4.8 1.6
55 1 35.2 3.2 0.0
56 3 36.8 4.8 1.6
57 1 38.4 3.2 0.0
58 2 40.0 4.8 1.6
59 1 41.6 3.2 0.0
60 2 43.2 4.8 1.6
61 3 44.8 3.2 0.0
62 1 46.4 4.8 1.6
63 3 48.0 3.2 0.0
64 1 49.6 4.8 1.6
65 3 0.0 6.4 0.0
66 1 1.6 8.0 1.6
67 3 3.2 6.4 0.0
68 1 4.8 8.0 1.6
69 3 6.4 6.4 0.0
70 1 8.0 8.0 1.6
71 3 9.6 6.4 0.0
72 1 11.2 8.0 1.6
73 3 12.8 6.4 0.0
74 1 14.4 8.0 1.6
75 3 16.0 6.4 0.0
76 1 17.6 8.0 1.6
77 3 19.2 6.4 0.0
78 1 20.8 8.0 1.6
79 3 22.4 6.4 0.0
80 2 24.0 8.0 1.6
81 1 25.6 6.4 0.0
82 3 27.2 8.0 1.6
83 1 28.8 6.4 0.0
84 3 30.4 8.0 1.6
85 1 32.0 6.4 0.0
86 3 33.6 8.0 1.6
87 1 35.2 6.4 0.0
88 3 36.8 8.0 1.6
89 1 38.4 6.4 0.0
90 3 40.0 8.0 1.6
91 1 41.6 6.4 0.0
92 1 43.2 8.0 1.6
93 2 44.8 6.4 0.0
94 1 46.4 8.0 1.6
95 3 48.0 6.4 0.0
96 1 49.6 8.0 1.6
97 3 0.0 9.6 0.0
98 1 1.6 11.2 1.6
99 3 3.2 9.6 0.0
100 1 4.8 11.2 1.6
101 3 6.4 9.6 0.0
102 1 8.0 11.2 1.6
103 3 9.6 9.6 0.0
104 1 11.2 11.2 1.6
105 3 12.8 9.6 0.0
106 1 14.4 11.2 1.6
107 3 16.0 9.6 0.0
108 1 17.6 11.2 1.6
109 3 19.2 9.6 0.0
110 1 20.8 11.2 1.6
111 2 22.4 9.6 0.0
112 3 24.0 11.2 1.6
113 1 25.6 9.6 0.0
114 3 27.2 11.2 1.6
115 1 28.8 9.6 0.0
116 3 30.4 11.2 1.6
117 1 32.0 9.6 0.0
118 3 33.6 11.2 1.6
119 1 35.2 9.6 0.0
120 1 36.8 11.2 1.6
121 2 38.4 9.6 0.0
122 1 40.0 11.2 1.6
123 3 41.6 9.6 0.0
124 1 43.2 11.2 1.6
125 3 44.8 9.6 0.0
126 1 46.4 11.2 1.6
127 3 48.0 9.6 0.0
128 1 49.6 11.2 1.6
129 3 0.0 12.8 0.0
130 3 1.6 14.4 1.6
131 2 3.2 12.8 0.0
132 2 4.8 14.4 1.6
133 3 6.4 12.8 0.0
134 1 8.0 14.4 1.6
135 3 9.6 12.8 0.0
136 1 11.2 14.4 1.6
137 3 12.8 12.8 0.0
138 1 14.4 14.4 1.6
139 3 16.0 12.8 0.0
140 1 17.6 14.4 1.6
141 3 19.2 12.8 0.0
142 1 20.8 14.4 1.6
143 2 22.4 12.8 0.0
144 3 24.0 14.4 1.6
145 1 25.6 12.8 0.0
146 3 27.2 14.4 1.6
147 1 28.8 12.8 0.0
148 2 30.4 14.4 1.6
149 2 32.0 12.8 0.0
150 1 33.6 14.4 1.6
151 2 35.2 12.8 0.0
152 1 36.8 14.4 1.6
153 3 38.4 12.8 0.0
154 1 40.0 14.4 1.6
155 3 41.6 12.8 0.0
156 1 43.2 14.4 1.6
157 3 44.8 12.8 0.0
158 1 46.4 14.4 1.6
159 3 48.0 12.8 0.0
160 1 49.6 14.4 1.6
161 1 0.0 16.0 0.0
162 3 1.6 17.6 1.6
163 1 3.2 16.0 0.0
164 2 4.8 17.6 1.6
165 2 6.4 16.0 0.0
166 1 8.0 17.6 1.6
167 3 9.6 16.0 0.0
168 1 11.2 17.6 1.6
169 3 12.8 16.0 0.0
170 1 14.4 17.6 1.6
171 3 16.0 16.0 0.0
172 1 17.6 17.6 1.6
173 3 19.2 16.0 0.0
174 1 20.8 17.6 1.6
175 2 22.4 16.0 0.0
176 3 24.0 17.6 1.6
177 1 25.6 16.0 0.0
178 3 27.2 17.6 1.6
179 1 28.8 16.0 0.0
180 2 30.4 17.6 1.6
181 3 32.0 16.0 0.0
182 1 33.6 17.6 1.6
183 3 35.2 16.0 0.0
184 1 36.8 17.6 1.6
185 3 38.4 16.0 0.0
186 1 40.0 17.6 1.6
187 3 41.6 16.0 0.0
188 1 43.2 17.6 1.6
189 3 44.8 16.0 0.0
190 1 46.4 17.6 1.6
191 2 48.0 16.0 0.0
192 2 49.6 17.6 1.6
193 1 0.0 19.2 0.0
194 3 1.6 20.8 1.6
195 1 3.2 19.2 0.0
196 3 4.8 20.8 1.6
197 1 6.4 19.2 0.0
198 3 8.0 20.8 1.6
199 3 9.6 19.2 0.0
200 1 11.2 20.8 1.6
201 3 12.8 19.2 0.0
202 1 14.4 20.8 1.6
203 3 16.0 19.2 0.0
204 1 17.6 20.8 1.6
205 3 19.2 19.2 0.0
206 1 20.8 20.8 1.6
207 2 22.4 19.2 0.0
208 2 24.0 20.8 1.6
209 1 25.6 19.2 0.0
210 3 27.2 20.8 1.6
211 2 28.8 19.2 0.0
212 2 30.4 20.8 1.6
213 3 32.0 19.2 0.0
214 1 33.6 20.8 1.6
215 3 35.2 19.2 0.0
216 1 36.8 20.8 1.6
217 3 38.4 19.2 0.0
218 1 40.0 20.8 1.6
219 3 41.6 19.2 0.0
220 1 43.2 20.8 1.6
221 3 44.8 19.2 0.0
222 1 46.4 20.8 1.6
223 3 48.0 19.2 0.0
224 3 49.6 20.8 1.6
225 1 0.0 22.4 0.0
226 3 1.6 24.0 1.6
227 1 3.2 22.4 0.0
228 3 4.8 24.0 1.6
229 1 6.4 22.4 0.0
230 3 8.0 24.0 1.6
231 1 9.6 22.4 0.0
232 3 11.2 24.0 1.6
233 1 12.8 22.4 0.0
234 3 14.4 24.0 1.6
235 2 16.0 22.4 0.0
236 1 17.6 24.0 1.6
237 3 19.2 22.4 0.0
238 1 20.8 24.0 1.6
239 2 22.4 22.4 0.0
240 2 24.0 24.0 1.6
241 1 25.6 22.4 0.0
242 2 27.2 24.0 1.6
243 1 28.8 22.4 0.0
244 2 30.4 24.0 1.6
245 1 32.0 22.4 0.0
246 3 33.6 24.0 1.6
247 1 35.2 22.4 0.0
248 3 36.8 24.0 1.6
249 2 38.4 22.4 0.0
250 1 40.0 24.0 1.6
251 3 41.6 22.4 0.0
252 1 43.2 24.0 1.6
253 3 44.8 22.4 0.0
254 1 46.4 24.0 1.6
255 2 48.0 22.4 0.0
256 2 49.6 24.0 1.6
257 2 0.0 25.6 0.0
258 3 1.6 27.2 1.6
259 1 3.2 25.6 0.0
260 3 4.8 27.2 1.6
261 1 6.4 25.6 0.0
262 3 8.0 27.2 1.6
263 1 9.6 25.6 0.0
264 3 11.2 27.2 1.6
265 1 12.8 25.6 0.0
266 2 14.4 27.2 1.6
267 1 16.0 25.6 0.0
268 1 17.6 27.2 1.6
269 3 19.2 25.6 0.0
270 1 20.8 27.2 1.6
271 3 22.4 25.6 0.0
272 1 24.0 27.2 1.6
273 1 25.6 25.6 0.0
274 1 27.2 27.2 1.6
275 1 28.8 25.6 0.0
276 1 30.4 27.2 1.6
277 1 32.0 25.6 0.0
278 3 33.6 27.2 1.6
279 1 35.2 25.6 0.0
280 2 36.8 27.2 1.6
281 2 38.4 25.6 0.0
282 1 40.0 27.2 1.6
283 2 41.6 25.6 0.0
284 1 43.2 27.2 1.6
285 3 44.8 25.6 0.0
286 1 46.4 27.2 1.6
287 3 48.0 25.6 0.0
288 1 49.6 27.2 1.6
289 2 0.0 28.8 0.0
290 3 1.6 30.4 1.6
291 1 3.2 28.8 0.0
292 3 4.8 30.4 1.6
293 1 6.4 28.8 0.0
294 3 8.0 30.4 1.6
295 1 9.6 28.8 0.0
296 2 11.2 30.4 1.6
297 1 12.8 28.8 0.0
298 2 14.4 30.4 1.6
299 3 16.0 28.8 0.0
300 1 17.6 30.4 1.6
301 3 19.2 28.8 0.0
302 1 20.8 30.4 1.6
303 3 22.4 28.8 0.0
304 1 24.0 30.4 1.6
305 3 25.6 28.8 0.0
306 1 27.2 30.4 1.6
307 3 28.8 28.8 0.0
308 1 30.4 30.4 1.6
309 3 32.0 28.8 0.0
310 1 33.6 30.4 1.6
311 2 35.2 28.8 0.0
312 1 36.8 30.4 1.6
313 1 38.4 28.8 0.0
314 1 40.0 30.4 1.6
315 2 41.6 28.8 0.0
316 1 43.2 30.4 1.6
317 3 44.8 28.8 0.0
318 1 46.4 30.4 1.6
319 2 48.0 28.8 0.0
320 1 49.6 30.4 1.6
321 1 0.0 32.0 0.0
322 3 1.6 33.6 1.6
323 1 3.2 32.0 0.0
324 3 4.8 33.6 1.6
325 1 6.4 32.0 0.0
326 3 8.0 33.6 1.6
327 1 9.6 32.0 0.0
328 3 11.2 33.6 1.6
329 1 12.8 32.0 0.0
330 2 14.4 33.6 1.6
331 3 16.0 32.0 0.0
332 1 17.6 33.6 1.6
333 3 19.2 32.0 0.0
334 1 20.8 33.6 1.6
335 3 22.4 32.0 0.0
336 1 24.0 33.6 1.6
337 3 25.6 32.0 0.0
338 1 27.2 33.6 1.6
339 3 28.8 32.0 0.0
340 1 30.4 33.6 1.6
341 3 32.0 32.0 0.0
342 1 33.6 33.6 1.6
343 3 35.2 32.0 0.0
344 1 36.8 33.6 1.6
345 2 38.4 32.0 0.0
346 1 40.0 33.6 1.6
347 3 41.6 32.0 0.0
348 1 43.2 33.6 1.6
349 3 44.8 32.0 0.0
350 1 46.4 33.6 1.6
351 1 48.0 32.0 0.0
352 3 49.6 33.6 1.6
353 1 0.0 35.2 0.0
354 3 1.6 36.8 1.6
355 1 3.2 35.2 0.0
356 3 4.8 36.8 1.6
357 1 6.4 35.2 0.0
358 3 8.0 36.8 1.6
359 1 9.6 35.2 0.0
360 2 11.2 36.8 1.6
361 1 12.8 35.2 0.0
362 1 14.4 36.8 1.6
363 3 16.0 35.2 0.0
364 1 17.6 36.8 1.6
365 3 19.2 35.2 0.0
366 1 20.8 36.8 1.6
367 3 22.4 35.2 0.0
368 1 24.0 36.8 1.6
369 3 25.6 35.2 0.0
370 1 27.2 36.8 1.6
371 3 28.8 35.2 0.0
372 1 30.4 36.8 1.6
373 3 32.0 35.2 0.0
374 1 33.6 36.8 1.6
375 3 35.2 35.2 0.0
376 1 36.8 36.8 1.6
377 3 38.4 35.2 0.0
378 1 40.0 36.8 1.6
379 3 41.6 35.2 0.0
380 1 43.2 36.8 1.6
381 3 44.8 35.2 0.0
382 1 46.4 36.8 1.6
383 1 48.0 35.2 0.0
384 3 49.6 36.8 1.6
385 1 0.0 38.4 0.0
386 3 1.6 40.0 1.6
387 1 3.2 38.4 0.0
388 2 4.8 40.0 1.6
389 1 6.4 38.4 0.0
390 3 8.0 40.0 1.6
391 1 9.6 38.4 0.0
392 2 11.2 40.0 1.6
393 2 12.8 38.4 0.0
394 1 14.4 40.0 1.6
395 3 16.0 38.4 0.0
396 1 17.6 40.0 1.6
397 3 19.2 38.4 0.0
398 1 20.8 40.0 1.6
399 3 22.4 38.4 0.0
400 1 24.0 40.0 1.6
401 3 25.6 38.4 0.0
402 1 27.2 40.0 1.6
403 3 28.8 38.4 0.0
404 1 30.4 40.0 1.6
405 3 32.0 38.4 0.0
406 1 33.6 40.0 1.6
407 3 35.2 38.4 0.0
408 1 36.8 40.0 1.6
409 3 38.4 38.4 0.0
410 1 40.0 40.0 1.6
411 3 41.6 38.4 0.0
412 1 43.2 40.0 1.6
413 3 44.8 38.4 0.0
414 1 46.4 40.0 1.6
415 1 48.0 38.4 0.0
416 3 49.6 40.0 1.6
417 1 0.0 41.6 0.0
418 2 1.6 43.2 1.6
419 1 3.2 41.6 0.0
420 3 4.8 43.2 1.6
421 1 6.4 41.6 0.0
422 1 8.0 43.2 1.6
423 3 9.6 41.6 0.0
424 1 11.2 43.2 1.6
425 3 12.8 41.6 0.0
426 1 14.4 43.2 1.6
427 3 16.0 41.6 0.0
428 1 17.6 43.2 1.6
429 3 19.2 41.6 0.0
430 1 20.8 43.2 1.6
431 3 22.4 41.6 0.0
432 1 24.0 43.2 1.6
433 3 25.6 41.6 0.0
434 1 27.2 43.2 1.6
435 3 28.8 41.6 0.0
436 1 30.4 43.2 1.6
437 3 32.0 41.6 0.0
438 1 33.6 43.2 1.6
439 3 35.2 41.6 0.0
440 1 36.8 43.2 1.6
441 3 38.4 41.6 0.0
442 1 40.0 43.2 1.6
443 3 41.6 41.6 0.0
444 1 43.2 43.2 1.6
445 3 44.8 41.6 0.0
446 1 46.4 43.2 1.6
447 2 48.0 41.6 0.0
448 2 49.6 43.2 1.6
449 2 0.0 44.8 0.0
450 1 1.6 46.4 1.6
451 3 3.2 44.8 0.0
452 1 4.8 46.4 1.6
453 3 6.4 44.8 0.0
454 1 8.0 46.4 1.6
455 3 9.6 44.8 0.0
456 1 11.2 46.4 1.6
457 3 12.8 44.8 0.0
458 1 14.4 46.4 1.6
459 3 16.0 44.8 0.0
460 1 17.6 46.4 1.6
461 3 19.2 44.8 0.0
462 1 20.8 46.4 1.6
463 3 22.4 44.8 0.0
464 1 24.0 46.4 1.6
465 2 25.6 44.8 0.0
466 1 27.2 46.4 1.6
467 1 28.8 44.8 0.0
468 3 30.4 46.4 1.6
469 3 32.0 44.8 0.0
470 1 33.6 46.4 1.6
471 3 35.2 44.8 0.0
472 1 36.8 46.4 1.6
473 3 38.4 44.8 0.0
474 1 40.0 46.4 1.6
475 2 41.6 44.8 0.0
476 1 43.2 46.4 1.6
477 3 44.8 44.8 0.0
478 1 46.4 46.4 1.6
479 2 48.0 44.8 0.0
480 1 49.6 46.4 1.6
481 3 0.0 48.0 0.0
482 1 1.6 49.6 1.6
483 3 3.2 48.0 0.0
484 1 4.8 49.6 1.6
485 3 6.4 48.0 0.0
486 1 8.0 49.6 1.6
487 3 9.6 48.0 0.0
488 1 11.2 49.6 1.6
489 3 12.8 48.0 0.0
490 1 14.4 49.6 1.6
491 3 16.0 48.0 0.0
492 1 17.6 49.6 1.6
493 3 19.2 48.0 0.0
494 1 20.8 49.6 1.6
495 3 22.4 48.0 0.0
496 1 24.0 49.6 1.6
497 1 25.6 48.0 0.0
498 3 27.2 49.6 1.6
499 1 28.8 48.0 0.0
500 3 30.4 49.6 1.6
501 1 32.0 48.0 0.0
502 2 33.6 49.6 1.6
503 2 35.2 48.0 0.0
504 1 36.8 49.6 1.6
505 3 38.4 48.0 0.0
506 1 40.0 49.6 1.6
507 3 41.6 48.0 0.0
508 1 43.2 49.6 1.6
509 3 44.8 48.0 0.0
510 1 46.4 49.6 1.6
511 3 48.0 48.0 0.0
512 1 49.6 49.6 1.6
513 3 0.0 0.0 3.2
514 1 1.6 1.6 4.8
515 3 3.2 0.0 3.2
516 1 4.8 1.6 4.8
517 3 6.4 0.0 3.2
518 1 8.0 1.6 4.8
519 3 9.6 0.0 3.2
520 1 11.2 1.6 4.8
521 3 12.8 0.0 3.2
522 1 14.4 1.6 4.8
523 3 16.0 0.0 3.2
524 1 17.6 1.6 4.8
525 3 19.2 0.0 3.2
526 1 20.8 1.6 4.8
527 3 22.4 0.0 3.2
528 1 24.0 1.6 4.8
529 1 25.6 0.0 3.2
530 3 27.2 1.6 4.8
531 1 28.8 0.0 3.2
532 3 30.4 1.6 4.8
533 1 32.0 0.0 3.2
534 3 33.6 1.6 4.8
535 2 35.2 0.0 3.2
536 1 36.8 1.6 4.8
537 3 38.4 0.0 3.2
538 2 40.0 1.6 4.8
539 3 41.6 0.0 3.2
540 2 43.2 1.6 4.8
541 3 44.8 0.0 3.2
542 1 46.4 1.6 4.8
543 3 48.0 0.0 3.2
544 1 49.6 1.6 4.8
545 3 0.0 3.2 3.2
546 1 1.6 4.8 4.8
547 3 3.2 3.2 3.2
548 1 4.8 4.8 4.8
549 3 6.4 3.2 3.2
550 1 8.0 4.8 4.8
551 3 9.6 3.2 3.2
552 1 11.2 4.8 4.8
553 3 12.8 3.2 3.2
554 1 14.4 4.8 4.8
555 3 16.0 3.2 3.2
556 1 17.6 4.8 4.8
557 3 19.2 3.2 3.2
558 1 20.8 4.8 4.8
559 3 22.4 3.2 3.2
560 1 24.0 4.8 4.8
561 1 25.6 3.2 3.2
562 3 27.2 4.8 4.8
563 1 28.8 3.2 3.2
564 3 30.4 4.8 4.8
565 1 32.0 3.2 3.2
566 3 33.6 4.8 4.8
567 1 35.2 3.2 3.2
568 3 36.8 4.8 4.8
569 1 38.4 3.2 3.2
570 3 40.0 4.8 4.8
571 1 41.6 3.2 3.2
572 2 43.2 4.8 4.8
573 3 44.8 3.2 3.2
574 1 46.4 4.8 4.8
575 3 48.0 3.2 3.2
576 1 49.6 4.8 4.8
577 3 0.0 6.4 3.2
578 1 1.6 8.0 4.8
579 3 3.2 6.4 3.2
580 1 4.8 8.0 4.8
581 3 6.4 6.4 3.2
582 1 8.0 8.0 4.8
583 3 9.6 6.4 3.2
584 1 11.2 8.0 4.8
585 3 12.8 6.4 3.2
586 1 14.4 8.0 4.8
587 3 16.0 6.4 3.2
588 1 17.6 8.0 4.8
589 3 19.2 6.4 3.2
590 1 20.8 8.0 4.8
591 3 22.4 6.4 3.2
592 3 24.0 8.0 4.8
593 1 25.6 6.4 3.2
594 3 27.2 8.0 4.8
595 1 28.8 6.4 3.2
596 3 30.4 8.0 4.8
597 1 32.0 6.4 3.2
598 2 33.6 8.0 4.8
599 1 35.2 6.4 3.2
600 3 36.8 8.0 4.8
601 1 38.4 6.4 3.2
602 3 40.0 8.0 4.8
603 1 41.6 6.4 3.2
604 2 43.2 8.0 4.8
605 3 44.8 6.4 3.2
606 1 46.4 8.0 4.8
607 3 48.0 6.4 3.2
608 1 49.6 8.0 4.8
609 3 0.0 9.6 3.2
610 1 1.6 11.2 4.8
611 3 3.2 9.6 3.2
612 1 4.8 11.2 4.8
613 3 6.4 9.6 3.2
614 1 8.0 11.2 4.8
615 3 9.6 9.6 3.2
616 1 11.2 11.2 4.8
617 3 12.8 9.6 3.2
618 1 14.4 11.2 4.8
619 3 16.0 9.6 3.2
620 1 17.6 11.2 4.8
621 3 19.2 9.6 3.2
622 1 20.8 11.2 4.8
623 2 22.4 9.6 3.2
624 3 24.0 11.2 4.8
625 1 25.6 9.6 3.2
626 3 27.2 11.2 4.8
627 1 28.8 9.6 3.2
628 3 30.4 11.2 4.8
629 1 32.0 9.6 3.2
630 3 33.6 11.2 4.8
631 1 35.2 9.6 3.2
632 3 36.8 11.2 4.8
633 1 38.4 9.6 3.2
634 2 40.0 11.2 4.8
635 2 41.6 9.6 3.2
636 1 43.2 11.2 4.8
637 3 44.8 9.6 3.2
638 1 46.4 11.2 4.8
639 3 48.0 9.6 3.2
640 1 49.6 11.2 4.8
641 2 0.0 12.8 3.2
642 3 1.6 14.4 4.8
643 3 3.2 12.8 3.2
644 1 4.8 14.4 4.8
645 3 6.4 12.8 3.2
646 1 8.0 14.4 4.8
647 3 9.6 12.8 3.2
648 1 11.2 14.4 4.8
649 3 12.8 12.8 3.2
650 1 14.4 14.4 4.8
651 3 16.0 12.8 3.2
652 1 17.6 14.4 4.8
653 3 19.2 12.8 3.2
654 1 20.8 14.4 4.8
655 1 22.4 12.8 3.2
656 3 24.0 14.4 4.8
657 1 25.6 12.8 3.2
658 3 27.2 14.4 4.8
659 1 28.8 12.8 3.2
660 3 30.4 14.4 4.8
661 1 32.0 12.8 3.2
662 2 33.6 14.4 4.8
663 1 35.2 12.8 3.2
664 1 36.8 14.4 4.8
665 2 38.4 12.8 3.2
666 1 40.0 14.4 4.8
667 3 41.6 12.8 3.2
668 1 43.2 14.4 4.8
669 3 44.8 12.8 3.2
670 1 46.4 14.4 4.8
671 3 48.0 12.8 3.2
672 1 49.6 14.4 4.8
673 1 0.0 16.0 3.2
674 3 1.6 17.6 4.8
675 1 3.2 16.0 3.2
676 2 4.8 17.6 4.8
677 1 6.4 16.0 3.2
678 1 8.0 17.6 4.8
679 3 9.6 16.0 3.2
680 1 11.2 17.6 4.8
681 3 12.8 16.0 3.2
682 1 14.4 17.6 4.8
683 3 16.0 16.0 3.2
684 1 17.6 17.6 4.8
685 3 19.2 16.0 3.2
686 1 20.8 17.6 4.8
687 1 22.4 16.0 3.2
688 3 24.0 17.6 4.8
689 1 25.6 16.0 3.2
690 3 27.2 17.6 4.8
691 1 28.8 16.0 3.2
692 3 30.4 17.6 4.8
693 2 32.0 16.0 3.2
694 1 33.6 17.6 4.8
695 3 35.2 16.0 3.2
696 1 36.8 17.6 4.8
697 3 38.4 16.0 3.2
698 1 40.0 17.6 4.8
699 3 41.6 16.0 3.2
700 1 43.2 17.6 4.8
701 3 44.8 16.0 3.2
702 1 46.4 17.6 4.8
703 2 48.0 16.0 3.2
704 3 49.6 17.6 4.8
705 1 0.0 19.2 3.2
706 3 1.6 20.8 4.8
707 1 3.2 19.2 3.2
708 3 4.8 20.8 4.8
709 1 6.4 19.2 3.2
710 3 8.0 20.8 4.8
711 3 9.6 19.2 3.2
712 1 11.2 20.8 4.8
713 3 12.8 19.2 3.2
714 1 14.4 20.8 4.8
715 3 16.0 19.2 3.2
716 1 17.6 20.8 4.8
717 3 19.2 19.2 3.2
718 1 20.8 20.8 4.8
719 1 22.4 19.2 3.2
720 3 24.0 20.8 4.8
721 1 25.6 19.2 3.2
722 3 27.2 20.8 4.8
723 1 28.8 19.2 3.2
724 1 30.4 20.8 4.8
725 2 32.0 19.2 3.2
726 1 33.6 20.8 4.8
727 3 35.2 19.2 3.2
728 1 36.8 20.8 4.8
729 3 38.4 19.2 3.2
730 1 40.0 20.8 4.8
731 3 41.6 19.2 3.2
732 1 43.2 20.8 4.8
733 3 44.8 19.2 3.2
734 2 46.4 20.8 4.8
735 2 48.0 19.2 3.2
736 3 49.6 20.8 4.8
737 1 0.0 22.4 3.2
738 3 1.6 24.0 4.8
739 1 3.2 22.4 3.2
740 3 4.8 24.0 4.8
741 1 6.4 22.4 3.2
742 3 8.0 24.0 4.8
743 1 9.6 22.4 3.2
744 3 11.2 24.0 4.8
745 2 12.8 22.4 3.2
746 2 14.4 24.0 4.8
747 2 16.0 22.4 3.2
748 1 17.6 24.0 4.8
749 3 19.2 22.4 3.2
750 1 20.8 24.0 4.8
751 2 22.4 22.4 3.2
752 1 24.0 24.0 4.8
753 2 25.6 22.4 3.2
754 1 27.2 24.0 4.8
755 1 28.8 22.4 3.2
756 1 30.4 24.0 4.8
757 3 32.0 22.4 3.2
758 1 33.6 24.0 4.8
759 2 35.2 22.4 3.2
760 2 36.8 24.0 4.8
761 3 38.4 22.4 3.2
762 1 40.0 24.0 4.8
763 3 41.6 22.4 3.2
764 1 43.2 24.0 4.8
765 2 44.8 22.4 3.2
766 2 46.4 24.0 4.8
767 1 48.0 22.4 3.2
768 3 49.6 24.0 4.8
769 1 0.0 25.6 3.2
770 3 1.6 27.2 4.8
771 1 3.2 25.6 3.2
772 3 4.8 27.2 4.8
773 1 6.4 25.6 3.2
774 3 8.0 27.2 4.8
775 1 9.6 25.6 3.2
776 3 11.2 27.2 4.8
777 1 12.8 25.6 3.2
778 3 14.4 27.2 4.8
779 1 16.0 25.6 3.2
780 1 17.6 27.2 4.8
781 3 19.2 25.6 3.2
782 1 20.8 27.2 4.8
783 3 22.4 25.6 3.2
784 1 24.0 27.2 4.8
785 3 25.6 25.6 3.2
786 1 27.2 27.2 4.8
787 2 28.8 25.6 3.2
788 1 30.4 27.2 4.8
789 1 32.0 25.6 3.2
790 2 33.6 27.2 4.8
791 1 35.2 25.6 3.2
792 3 36.8 27.2 4.8
793 1 38.4 25.6 3.2
794 3 40.0 27.2 4.8
795 3 41.6 25.6 3.2
796 3 43.2 27.2 4.8
797 3 44.8 25.6 3.2
798 3 46.4 27.2 4.8
799 2 48.0 25.6 3.2
800 3 49.6 27.2 4.8
801 1 0.0 28.8 3.2
802 3 1.6 30.4 4.8
803 1 3.2 28.8 3.2
804 3 4.8 30.4 4.8
805 1 6.4 28.8 3.2
806 3 8.0 30.4 4.8
807 1 9.6 28.8 3.2
808 3 11.2 30.4 4.8
809 1 12.8 28.8 3.2
810 3 14.4 30.4 4.8
811 1 16.0 28.8 3.2
812 1 17.6 30.4 4.8
813 3 19.2 28.8 3.2
814 1 20.8 30.4 4.8
815 3 22.4 28.8 3.2
816 1 24.0 30.4 4.8
817 3 25.6 28.8 3.2
818 1 27.2 30.4 4.8
819 3 28.8 28.8 3.2
820 1 30.4 30.4 4.8
821 3 32.0 28.8 3.2
822 1 33.6 30.4 4.8
823 1 35.2 28.8 3.2
824 1 36.8 30.4 4.8
825 1 38.4 28.8 3.2
826 1 40.0 30.4 4.8
827 2 41.6 28.8 3.2
828 1 43.2 30.4 4.8
829 3 44.8 28.8 3.2
830 2 46.4 30.4 4.8
831 3 48.0 28.8 3.2
832 3 49.6 30.4 4.8
833 1 0.0 32.0 3.2
834 3 1.6 33.6 4.8
835 1 3.2 32.0 3.2
836 3 4.8 33.6 4.8
837 1 6.4 32.0 3.2
838 3 8.0 33.6 4.8
839 1 9.6 32.0 3.2
840 3 11.2 33.6 4.8
841 1 12.8 32.0 3.2
842 3 14.4 33.6 4.8
843 2 16.0 32.0 3.2
844 1 17.6 33.6 4.8
845 3 19.2 32.0 3.2
846 1 20.8 33.6 4.8
847 3 22.4 32.0 3.2
848 1 24.0 33.6 4.8
849 3 25.6 32.0 3.2
850 1 27.2 33.6 4.8
851 3 28.8 32.0 3.2
852 1 30.4 33.6 4.8
853 3 32.0 32.0 3.2
854 1 33.6 33.6 4.8
855 3 35.2 32.0 3.2
856 1 36.8 33.6 4.8
857 3 38.4 32.0 3.2
858 1 40.0 33.6 4.8
859 3 41.6 32.0 3.2
860 1 43.2 33.6 4.8
861 3 44.8 32.0 3.2
862 1 46.4 33.6 4.8
863 2 48.0 32.0 3.2
864 3 49.6 33.6 4.8
865 1 0.0 35.2 3.2
866 3 1.6 36.8 4.8
867 1 3.2 35.2 3.2
868 3 4.8 36.8 4.8
869 1 6.4 35.2 3.2
870 3 8.0 36.8 4.8
871 1 9.6 35.2 3.2
872 3 11.2 36.8 4.8
873 1 12.8 35.2 3.2
874 3 14.4 36.8 4.8
875 3 16.0 35.2 3.2
876 1 17.6 36.8 4.8
877 3 19.2 35.2 3.2
878 1 20.8 36.8 4.8
879 3 22.4 35.2 3.2
880 1 24.0 36.8 4.8
881 3 25.6 35.2 3.2
882 1 27.2 36.8 4.8
883 3 28.8 35.2 3.2
884 1 30.4 36.8 4.8
885 3 32.0 35.2 3.2
886 1 33.6 36.8 4.8
887 3 35.2 35.2 3.2
888 1 36.8 36.8 4.8
889 3 38.4 35.2 3.2
890 1 40.0 36.8 4.8
891 3 41.6 35.2 3.2
892 1 43.2 36.8 4.8
893 3 44.8 35.2 3.2
894 2 46.4 36.8 4.8
895 1 48.0 35.2 3.2
896 3 49.6 36.8 4.8
897 1 0.0 38.4 3.2
898 3 1.6 40.0 4.8
899 1 3.2 38.4 3.2
900 3 4.8 40.0 4.8
901 1 6.4 38.4 3.2
902 3 8.0 40.0 4.8
903 1 9.6 38.4 3.2
904 3 11.2 40.0 4.8
905 1 12.8 38.4 3.2
906 2 14.4 40.0 4.8
907 3 16.0 38.4 3.2
908 1 17.6 40.0 4.8
909 3 19.2 38.4 3.2
910 1 20.8 40.0 4.8
911 3 22.4 38.4 3.2
912 1 24.0 40.0 4.8
913 3 25.6 38.4 3.2
914 1 27.2 40.0 4.8
915 3 28.8 38.4 3.2
916 1 30.4 40.0 4.8
917 3 32.0 38.4 3.2
918 1 33.6 40.0 4.8
919 3 35.2 38.4 3.2
920 1 36.8 40.0 4.8
921 3 38.4 38.4 3.2
922 1 40.0 40.0 4.8
923 3 41.6 38.4 3.2
924 1 43.2 40.0 4.8
925 2 44.8 38.4 3.2
926 3 46.4 40.0 4.8
927 1 48.0 38.4 3.2
928 3 49.6 40.0 4.8
929 1 0.0 41.6 3.2
930 3 1.6 43.2 4.8
931 1 3.2 41.6 3.2
932 3 4.8 43.2 4.8
933 1 6.4 41.6 3.2
934 3 8.0 43.2 4.8
935 1 9.6 41.6 3.2
936 1 11.2 43.2 4.8
937 1 12.8 41.6 3.2
938 1 14.4 43.2 4.8
939 3 16.0 41.6 3.2
940 1 17.6 43.2 4.8
941 3 19.2 41.6 3.2
942 1 20.8 43.2 4.8
943 3 22.4 41.6 3.2
944 1 24.0 43.2 4.8
945 3 25.6 41.6 3.2
946 1 27.2 43.2 4.8
947 3 28.8 41.6 3.2
948 1 30.4 43.2 4.8
949 3 32.0 41.6 3.2
950 1 33.6 43.2 4.8
951 3 35.2 41.6 3.2
952 1 36.8 43.2 4.8
953 3 38.4 41.6 3.2
954 2 40.0 43.2 4.8
955 1 41.6 41.6 3.2
956 2 43.2 43.2 4.8
957 1 44.8 41.6 3.2
958 3 46.4 43.2 4.8
959 1 48.0 41.6 3.2
960 3 49.6 43.2 4.8
961 1 0.0 44.8 3.2
962 2 1.6 46.4 4.8
963 3 3.2 44.8 3.2
964 1 4.8 46.4 4.8
965 2 6.4 44.8 3.2
966 1 8.0 46.4 4.8
967 2 9.6 44.8 3.2
968 1 11.2 46.4 4.8
969 3 12.8 44.8 3.2
970 1 14.4 46.4 4.8
971 3 16.0 44.8 3.2
972 1 17.6 46.4 4.8
973 3 19.2 44.8 3.2
974 1 20.8 46.4 4.8
975 3 22.4 44.8 3.2
976 1 24.0 46.4 4.8
977 2 25.6 44.8 3.2
978 1 27.2 46.4 4.8
979 2 28.8 44.8 3.2
980 2 30.4 46.4 4.8
981 2 32.0 44.8 3.2
982 1 33.6 46.4 4.8
983 3 35.2 44.8 3.2
984 1 36.8 46.4 4.8
985 3 38.4 44.8 3.2
986 1 40.0 46.4 4.8
987 2 41.6 44.8 3.2
988 2 43.2 46.4 4.8
989 1 44.8 44.8 3.2
990 3 46.4 46.4 4.8
991 1 48.0 44.8 3.2
992 3 49.6 46.4 4.8
993 3 0.0 48.0 3.2
994 1 1.6 49.6 4.8
995 3 3.2 48.0 3.2
996 1 4.8 49.6 4.8
997 3 6.4 48.0 3.2
998 1 8.0 49.6 4.8
999 3 9.6 48.0 3.2
1000 1 11.2 49.6 4.8
1001 3 12.8 48.0 3.2
1002 1 14.4 49.6 4.8
1003 3 16.0 48.0 3.2
1004 1 17.6 49.6 4.8
1005 3 19.2 48.0 3.2
1006 1 20.8 49.6 4.8
1007 2 22.4 48.0 3.2
1008 1 24.0 49.6 4.8
1009 1 25.6 48.0 3.2
1010 3 27.2 49.6 4.8
1011 1 28.8 48.0 3.2
1012 3 30.4 49.6 4.8
1013 1 32.0 48.0 3.2
1014 2 33.6 49.6 4.8
1015 3 35.2 48.0 3.2
1016 1 36.8 49.6 4.8
1017 3 38.4 48.0 3.2
1018 1 40.0 49.6 4.8
1019 3 41.6 48.0 3.2
1020 2 43.2 49.6 4.8
1021 2 44.8 48.0 3.2
1022 1 46.4 49.6 4.8
1023 3 48.0 48.0 3.2
1024 1 49.6 49.6 4.8
1025 3 0.0 0.0 6.4
1026 1 1.6 1.6 8.0
1027 3 3.2 0.0 6.4
1028 1 4.8 1.6 8.0
1029 3 6.4 0.0 6.4
1030 1 8.0 1.6 8.0
1031 3 9.6 0.0 6.4
1032 1 11.2 1.6 8.0
1033 3 12.8 0.0 6.4
1034 1 14.4 1.6 8.0
1035 3 16.0 0.0 6.4
1036 1 17.6 1.6 8.0
1037 3 19.2 0.0 6.4
1038 1 20.8 1.6 8.0
1039 3 22.4 0.0 6.4
1040 1 24.0 1.6 8.0
1041 1 25.6 0.0 6.4
1042 2 27.2 1.6 8.0
1043 1 28.8 0.0 6.4
1044 2 30.4 1.6 8.0
1045 1 32.0 0.0 6.4
1046 3 33.6 1.6 8.0
1047 1 35.2 0.0 6.4
1048 1 36.8 1.6 8.0
1049 2 38.4 0.0 6.4
1050 3 40.0 1.6 8.0
1051 1 41.6 0.0 6.4
1052 3 43.2 1.6 8.0
1053 1 44.8 0.0 6.4
1054 3 46.4 1.6 8.0
1055 1 48.0 0.0 6.4
1056 1 49.6 1.6 8.0
1057 3 0.0 3.2 6.4
1058 1 1.6 4.8 8.0
1059 3 3.2 3.2 6.4
1060 1 4.8 4.8 8.0
1061 3 6.4 3.2 6.4
1062 1 8.0 4.8 8.0
1063 3 9.6 3.2 6.4
1064 1 11.2 4.8 8.0
1065 3 12.8 3.2 6.4
1066 1 14.4 4.8 8.0
1067 3 16.0 3.2 6.4
1068 1 17.6 4.8 8.0
1069 3 19.2 3.2 6.4
1070 1 20.8 4.8 8.0
1071 3 22.4 3.2 6.4
1072 3 24.0 4.8 8.0
1073 1 25.6 3.2 6.4
1074 3 27.2 4.8 8.0
1075 1 28.8 3.2 6.4
1076 3 30.4 4.8 8.0
1077 1 32.0 3.2 6.4
1078 3 33.6 4.8 8.0
1079 1 35.2 3.2 6.4
1080 3 36.8 4.8 8.0
1081 1 38.4 3.2 6.4
1082 3 40.0 4.8 8.0
1083 1 41.6 3.2 6.4
1084 3 43.2 4.8 8.0
1085 1 44.8 3.2 6.4
1086 3 46.4 4.8 8.0
1087 3 48.0 3.2 6.4
1088 1 49.6 4.8 8.0
1089 3 0.0 6.4 6.4
1090 1 1.6 8.0 8.0
1091 3 3.2 6.4 6.4
1092 1 4.8 8.0 8.0
1093 3 6.4 6.4 6.4
1094 1 8.0 8.0 8.0
1095 3 9.6 6.4 6.4
1096 1 11.2 8.0 8.0
1097 3 12.8 6.4 6.4
1098 1 14.4 8.0 8.0
1099 3 16.0 6.4 6.4
1100 1 17.6 8.0 8.0
1101 3 19.2 6.4 6.4
1102 1 20.8 8.0 8.0
1103 3 22.4 6.4 6.4
1104 3 24.0 8.0 8.0
1105 1 25.6 6.4 6.4
1106 3 27.2 8.0 8.0
1107 1 28.8 6.4 6.4
1108 3 30.4 8.0 8.0
1109 1 32.0 6.4 6.4
1110 2 33.6 8.0 8.0
1111 1 35.2 6.4 6.4
1112 3 36.8 8.0 8.0
1113 1 38.4 6.4 6.4
1114 3 40.0 8.0 8.0
1115 1 41.6 6.4 6.4
1116 3 43.2 8.0 8.0
1117 1 44.8 6.4 6.4
1118 2 46.4 8.0 8.0
1119 3 48.0 6.4 6.4
1120 2 49.6 8.0 8.0
1121 2 0.0 9.6 6.4
1122 1 1.6 11.2 8.0
1123 3 3.2 9.6 6.4
1124 1 4.8 11.2 8.0
1125 3 6.4 9.6 6.4
1126 1 8.0 11.2 8.0
1127 3 9.6 9.6 6.4
1128 1 11.2 11.2 8.0
1129 3 12.8 9.6 6.4
1130 1 14.4 11.2 8.0
1131 3 16.0 9.6 6.4
1132 1 17.6 11.2 8.0
1133 3 19.2 9.6 6.4
1134 1 20.8 11.2 8.0
1135 1 22.4 9.6 6.4
1136 3 24.0 11.2 8.0
1137 1 25.6 9.6 6.4
1138 3 27.2 11.2 8.0
1139 1 28.8 9.6 6.4
1140 3 30.4 11.2 8.0
1141 1 32.0 9.6 6.4
1142 3 33.6 11.2 8.0
1143 1 35.2 9.6 6.4
1144 3 36.8 11.2 8.0
1145 1 38.4 9.6 6.4
1146 3 40.0 11.2 8.0
1147 1 41.6 9.6 6.4
1148 2 43.2 11.2 8.0
1149 1 44.8 9.6 6.4
1150 2 46.4 11.2 8.0
1151 2 48.0 9.6 6.4
1152 3 49.6 11.2 8.0
1153 2 0.0 12.8 6.4
1154 3 1.6 14.4 8.0
1155 2 3.2 12.8 6.4
1156 1 4.8 14.4 8.0
1157 3 6.4 12.8 6.4
1158 1 8.0 14.4 8.0
1159 3 9.6 12.8 6.4
1160 1 11.2 14.4 8.0
1161 3 12.8 12.8 6.4
1162 1 14.4 14.4 8.0
1163 3 16.0 12.8 6.4
1164 1 17.6 14.4 8.0
1165 3 19.2 12.8 6.4
1166 1 20.8 14.4 8.0
1167 1 22.4 12.8 6.4
1168 3 24.0 14.4 8.0
1169 1 25.6 12.8 6.4
1170 2 27.2 14.4 8.0
1171 1 28.8 12.8 6.4
1172 3 30.4 14.4 8.0
1173 1 32.0 12.8 6.4
1174 3 33.6 14.4 8.0
1175 1 35.2 12.8 6.4
1176 3 36.8 14.4 8.0
1177 1 38.4 12.8 6.4
1178 1 40.0 14.4 8.0
1179 2 41.6 12.8 6.4
1180 1 43.2 14.4 8.0
1181 3 44.8 12.8 6.4
1182 1 46.4 14.4 8.0
1183 2 48.0 12.8 6.4
1184 3 49.6 14.4 8.0
1185 1 0.0 16.0 6.4
1186 3 1.6 17.6 8.0
1187 1 3.2 16.0 6.4
1188 3 4.8 17.6 8.0
1189 2 6.4 16.0 6.4
1190 1 8.0 17.6 8.0
1191 3 9.6 16.0 6.4
1192 1 11.2 17.6 8.0
1193 3 12.8 16.0 6.4
1194 1 14.4 17.6 8.0
1195 3 16.0 16.0 6.4
1196 1 17.6 17.6 8.0
1197 2 19.2 16.0 6.4
1198 2 20.8 17.6 8.0
1199 1 22.4 16.0 6.4
1200 3 24.0 17.6 8.0
1201 1 25.6 16.0 6.4
1202 3 27.2 17.6 8.0
1203 1 28.8 16.0 6.4
1204 2 30.4 17.6 8.0
1205 1 32.0 16.0 6.4
1206 1 33.6 17.6 8.0
1207 2 35.2 16.0 6.4
1208 1 36.8 17.6 8.0
1209 3 38.4 16.0 6.4
1210 1 40.0 17.6 8.0
1211 3 41.6 16.0 6.4
1212 1 43.2 17.6 8.0
1213 3 44.8 16.0 6.4
1214 1 46.4 17.6 8.0
1215 2 48.0 16.0 6.4
1216 3 49.6 17.6 8.0
1217 1 0.0 19.2 6.4
1218 3 1.6 20.8 8.0
1219 1 3.2 19.2 6.4
1220 3 4.8 20.8 8.0
1221 1 6.4 19.2 6.4
1222 3 8.0 20.8 8.0
1223 2 9.6 19.2 6.4
1224 3 11.2 20.8 8.0
1225 3 12.8 19.2 6.4
1226 2 14.4 20.8 8.0
1227 3 16.0 19.2 6.4
1228 1 17.6 20.8 8.0
1229 3 19.2 19.2 6.4
1230 1 20.8 20.8 8.0
1231 2 22.4 19.2 6.4
1232 2 24.0 20.8 8.0
1233 1 25.6 19.2 6.4
1234 1 27.2 20.8 8.0
1235 1 28.8 19.2 6.4
1236 1 30.4 20.8 8.0
1237 2 32.0 19.2 6.4
1238 1 33.6 20.8 8.0
1239 3 35.2 19.2 6.4
1240 1 36.8 20.8 8.0
1241 3 38.4 19.2 6.4
1242 1 40.0 20.8 8.0
1243 3 41.6 19.2 6.4
1244 1 43.2 20.8 8.0
1245 3 44.8 19.2 6.4
1246 2 46.4 20.8 8.0
1247 1 48.0 19.2 6.4
1248 3 49.6 20.8 8.0
1249 1 0.0 22.4 6.4
1250 3 1.6 24.0 8.0
1251 1 3.2 22.4 6.4
1252 3 4.8 24.0 8.0
1253 1 6.4 22.4 6.4
1254 3 8.0 24.0 8.0
1255 1 9.6 22.4 6.4
1256 3 11.2 24.0 8.0
1257 1 12.8 22.4 6.4
1258 3 14.4 24.0 8.0
1259 2 16.0 22.4 6.4
1260 1 17.6 24.0 8.0
1261 3 19.2 22.4 6.4
1262 1 20.8 24.0 8.0
1263 2 22.4 22.4 6.4
1264 1 24.0 24.0 8.0
1265 3 25.6 22.4 6.4
1266 1 27.2 24.0 8.0
1267 2 28.8 22.4 6.4
1268 1 30.4 24.0 8.0
1269 3 32.0 22.4 6.4
1270 1 33.6 24.0 8.0
1271 3 35.2 22.4 6.4
1272 1 36.8 24.0 8.0
1273 3 38.4 22.4 6.4
1274 2 40.0 24.0 8.0
1275 2 41.6 22.4 6.4
1276 2 43.2 24.0 8.0
1277 2 44.8 22.4 6.4
1278 3 46.4 24.0 8.0
1279 1 48.0 22.4 6.4
1280 3 49.6 24.0 8.0
1281 1 0.0 25.6 6.4
1282 3 1.6 27.2 8.0
1283 1 3.2 25.6 6.4
1284 3 4.8 27.2 8.0
1285 1 6.4 25.6 6.4
1286 3 8.0 27.2 8.0
1287 1 9.6 25.6 6.4
1288 3 11.2 27.2 8.0
1289 1 12.8 25.6 6.4
1290 3 14.4 27.2 8.0
1291 1 16.0 25.6 6.4
1292 2 17.6 27.2 8.0
1293 3 19.2 25.6 6.4
1294 1 20.8 27.2 8.0
1295 3 22.4 25.6 6.4
1296 1 24.0 27.2 8.0
1297 3 25.6 25.6 6.4
1298 1 27.2 27.2 8.0
1299 3 28.8 25.6 6.4
1300 1 30.4 27.2 8.0
1301 3 32.0 25.6 6.4
1302 1 33.6 27.2 8.0
1303 1 35.2 25.6 6.4
1304 1 36.8 27.2 8.0
1305 1 38.4 25.6 6.4
1306 3 40.0 27.2 8.0
1307 1 41.6 25.6 6.4
1308 3 43.2 27.2 8.0
1309 1 44.8 25.6 6.4
1310 3 46.4 27.2 8.0
1311 1 48.0 25.6 6.4
1312 3 49.6 27.2 8.0
1313 1 0.0 28.8 6.4
1314 3 1.6 30.4 8.0
1315 1 3.2 28.8 6.4
1316 3 4.8 30.4 8.0
1317 1 6.4 28.8 6.4
1318 3 8.0 30.4 8.0
1319 1 9.6 28.8 6.4
1320 3 11.2 30.4 8.0
1321 1 12.8 28.8 6.4
1322 3 14.4 30.4 8.0
1323 1 16.0 28.8 6.4
1324 1 17.6 30.4 8.0
1325 3 19.2 28.8 6.4
1326 1 20.8 30.4 8.0
1327 3 22.4 28.8 6.4
1328 1 24.0 30.4 8.0
1329 3 25.6 28.8 6.4
1330 1 27.2 30.4 8.0
1331 3 28.8 28.8 6.4
1332 1 30.4 30.4 8.0
1333 3 32.0 28.8 6.4
1334 1 33.6 30.4 8.0
1335 1 35.2 28.8 6.4
1336 1 36.8 30.4 8.0
1337 1 38.4 28.8 6.4
1338 1 40.0 30.4 8.0
1339 1 41.6 28.8 6.4
1340 2 43.2 30.4 8.0
1341 1 44.8 28.8 6.4
1342 2 46.4 30.4 8.0
1343 1 48.0 28.8 6.4
1344 3 49.6 30.4 8.0
1345 1 0.0 32.0 6.4
1346 3 1.6 33.6 8.0
1347 1 3.2 32.0 6.4
1348 3 4.8 33.6 8.0
1349 1 6.4 32.0 6.4
1350 3 8.0 33.6 8.0
1351 1 9.6 32.0 6.4
1352 3 11.2 33.6 8.0
1353 1 12.8 32.0 6.4
1354 3 14.4 33.6 8.0
1355 1 16.0 32.0 6.4
1356 1 17.6 33.6 8.0
1357 3 19.2 32.0 6.4
1358 1 20.8 33.6 8.0
1359 3 22.4 32.0 6.4
1360 1 24.0 33.6 8.0
1361 3 25.6 32.0 6.4
1362 1 27.2 33.6 8.0
1363 3 28.8 32.0 6.4
1364 1 30.4 33.6 8.0
1365 3 32.0 32.0 6.4
1366 1 33.6 33.6 8.0
1367 3 35.2 32.0 6.4
1368 1 36.8 33.6 8.0
1369 3 38.4 32.0 6.4
1370 1 40.0 33.6 8.0
1371 3 41.6 32.0 6.4
1372 1 43.2 33.6 8.0
1373 2 44.8 32.0 6.4
1374 3 46.4 33.6 8.0
1375 1 48.0 32.0 6.4
1376 3 49.6 33.6 8.0
1377 1 0.0 35.2 6.4
1378 3 1.6 36.8 8.0
1379 1 3.2 35.2 6.4
1380 3 4.8 36.8 8.0
1381 1 6.4 35.2 6.4
1382 3 8.0 36.8 8.0
1383 1 9.6 35.2 6.4
1384 3 11.2 36.8 8.0
1385 1 12.8 35.2 6.4
1386 2 14.4 36.8 8.0
1387 1 16.0 35.2 6.4
1388 1 17.6 36.8 8.0
1389 3 19.2 35.2 6.4
1390 1 20.8 36.8 8.0
1391 3 22.4 35.2 6.4
1392 1 24.0 36.8 8.0
1393 3 25.6 35.2 6.4
1394 1 27.2 36.8 8.0
1395 3 28.8 35.2 6.4
1396 1 30.4 36.8 8.0
1397 3 32.0 35.2 6.4
1398 1 33.6 36.8 8.0
1399 3 35.2 35.2 6.4
1400 1 36.8 36.8 8.0
1401 3 38.4 35.2 6.4
1402 1 40.0 36.8 8.0
1403 3 41.6 35.2 6.4
1404 1 43.2 36.8 8.0
1405 2 44.8 35.2 6.4
1406 3 46.4 36.8 8.0
1407 1 48.0 35.2 6.4
1408 3 49.6 36.8 8.0
1409 1 0.0 38.4 6.4
1410 3 1.6 40.0 8.0
1411 1 3.2 38.4 6.4
1412 3 4.8 40.0 8.0
1413 1 6.4 38.4 6.4
1414 3 8.0 40.0 8.0
1415 1 9.6 38.4 6.4
1416 3 11.2 40.0 8.0
1417 1 12.8 38.4 6.4
1418 2 14.4 40.0 8.0
1419 2 16.0 38.4 6.4
1420 1 17.6 40.0 8.0
1421 3 19.2 38.4 6.4
1422 1 20.8 40.0 8.0
1423 3 22.4 38.4 6.4
1424 1 24.0 40.0 8.0
1425 3 25.6 38.4 6.4
1426 1 27.2 40.0 8.0
1427 3 28.8 38.4 6.4
1428 1 30.4 40.0 8.0
1429 3 32.0 38.4 6.4
1430 1 33.6 40.0 8.0
1431 3 35.2 38.4 6.4
1432 1 36.8 40.0 8.0
1433 3 38.4 38.4 6.4
1434 1 40.0 40.0 8.0
1435 3 41.6 38.4 6.4
1436 1 43.2 40.0 8.0
1437 1 44.8 38.4 6.4
1438 3 46.4 40.0 8.0
1439 1 48.0 38.4 6.4
1440 3 49.6 40.0 8.0
1441 1 0.0 41.6 6.4
1442 3 1.6 43.2 8.0
1443 1 3.2 41.6 6.4
1444 3 4.8 43.2 8.0
1445 1 6.4 41.6 6.4
1446 3 8.0 43.2 8.0
1447 1 9.6 41.6 6.4
1448 2 11.2 43.2 8.0
1449 1 12.8 41.6 6.4
1450 1 14.4 43.2 8.0
1451 3 16.0 41.6 6.4
1452 1 17.6 43.2 8.0
1453 3 19.2 41.6 6.4
1454 1 20.8 43.2 8.0
1455 3 22.4 41.6 6.4
1456 1 24.0 43.2 8.0
1457 3 25.6 41.6 6.4
1458 1 27.2 43.2 8.0
1459 3 28.8 41.6 6.4
1460 1 30.4 43.2 8.0
1461 3 32.0 41.6 6.4
1462 1 33.6 43.2 8.0
1463 2 35.2 41.6 6.4
1464 3 36.8 43.2 8.0
1465 1 38.4 41.6 6.4
1466 3 40.0 43.2 8.0
1467 1 41.6 41.6 6.4
1468 3 43.2 43.2 8.0
1469 1 44.8 41.6 6.4
1470 3 46.4 43.2 8.0
1471 1 48.0 41.6 6.4
1472 3 49.6 43.2 8.0
1473 1 0.0 44.8 6.4
1474 3 1.6 46.4 8.0
1475 1 3.2 44.8 6.4
1476 1 4.8 46.4 8.0
1477 1 6.4 44.8 6.4
1478 2 8.0 46.4 8.0
1479 3 9.6 44.8 6.4
1480 1 11.2 46.4 8.0
1481 3 12.8 44.8 6.4
1482 1 14.4 46.4 8.0
1483 3 16.0 44.8 6.4
1484 1 17.6 46.4 8.0
1485 3 19.2 44.8 6.4
1486 1 20.8 46.4 8.0
1487 3 22.4 44.8 6.4
1488 1 24.0 46.4 8.0
1489 3 25.6 44.8 6.4
1490 2 27.2 46.4 8.0
1491 2 28.8 44.8 6.4
1492 1 30.4 46.4 8.0
1493 3 32.0 44.8 6.4
1494 2 33.6 46.4 8.0
1495 2 35.2 44.8 6.4
1496 3 36.8 46.4 8.0
1497 1 38.4 44.8 6.4
1498 3 40.0 46.4 8.0
1499 1 41.6 44.8 6.4
1500 3 43.2 46.4 8.0