ITEM: TIMESTEP
0
ITEM: NUMBER OF ATOMS
8192
ITEM: BOX BOUNDS pp pp pp
0.0000000000000000e+00 5.1200000000000003e+01
0.0000000000000000e+00 5.1200000000000003e+01
0.0000000000000000e+00 5.1200000000000003e+01
ITEM: ATOMS id type x y z c_eng
1 3 0 0 0 -11.3103
2 1 1.6 1.6 1.6 -11.4892
3 3 3.2 0 0 -11.2811
4 1 4.8 1.6 1.6 -11.6751
5 3 6.4 0 0 -11.127
6 1 8 1.6 1.6 -11.6197
7 1 9.6 0 0 -11.5762
8 3 11.2 1.6 1.6 -11.1373
9 1 12.8 0 0 -11.8091
10 3 14.4 1.6 1.6 -11.2626
11 1 16 0 0 -11.5922
12 1 17.6 1.6 1.6 -11.4226
13 1 19.2 0 0 -11.5681
14 1 20.8 1.6 1.6 -11.5633
15 3 22.4 0 0 -11.3133
16 3 24 1.6 1.6 -11.3869
17 1 25.6 0 0 -11.9176
18 3 27.2 1.6 1.6 -11.3394
19 3 28.8 0 0 -11.2296
20 3 30.4 1.6 1.6 -11.4491
21 3 32 0 0 -11.3445
22 3 33.6 1.6 1.6 -11.3713
23 3 35.2 0 0 -11.3382
24 1 36.8 1.6 1.6 -11.6739
25 2 38.4 0 0 -9.75017
26 1 40 1.6 1.6 -11.7981
27 3 41.6 0 0 -11.083
28 1 43.2 1.6 1.6 -11.65
29 3 44.8 0 0 -11.0841
30 1 46.4 1.6 1.6 -11.5469
31 2 48 0 0 -9.74667
32 2 49.6 1.6 1.6 -9.61733
33 3 0 3.2 0 -11.2375
34 2 1.6 4.8 1.6 -9.78179
35 3 3.2 3.2 0 -11.3601
36 3 4.8 4.8 1.6 -11.2277
37 3 6.4 3.2 0 -11.3511
38 2 8 4.8 1.6 -9.77447
39 2 9.6 3.2 0 -9.74119
40 1 11.2 4.8 1.6 -11.5448
41 1 12.8 3.2 0 -11.714
42 3 14.4 4.8 1.6 -11.2892
43 1 16 3.2 0 -11.7233
44 3 17.6 4.8 1.6 -11.3012
45 3 19.2 3.2 0 -10.9986
46 1 20.8 4.8 1.6 -11.6135
47 2 22.4 3.2 0 -9.83572
48 3 24 4.8 1.6 -11.0745
49 1 25.6 3.2 0 -11.829
50 3 27.2 4.8 1.6 -11.2452
51 1 28.8 3.2 0 -11.8534
52 3 30.4 4.8 1.6 -11.2381
53 1 32 3.2 0 -11.8866
54 3 33.6 4.8 1.6 -11.1839
55 1 35.2 3.2 0 -11.7006
56 1 36.8 4.8 1.6 -11.5443
57 2 38.4 3.2 0 -9.77594
58 3 40 4.8 1.6 -11.2393
59 3 41.6 3.2 0 -11.3286
60 3 43.2 4.8 1.6 -11.345
61 3 44.8 3.2 0 -11.2733
62 3 46.4 4.8 1.6 -11.1983
63 3 48 3.2 0 -11.1078
64 1 49.6 4.8 1.6 -11.7217
65 3 0 6.4 0 -11.319
66 3 1.6 8 1.6 -11.3133
67 3 3.2 6.4 0 -11.2893
68 1 4.8 8 1.6 -11.5154
69 3 6.4 6.4 0 -11.3516
70 1 8 8 1.6 -11.5479
71 3 9.6 6.4 0 -11.1495
72 1 11.2 8 1.6 -11.5499
73 3 12.8 6.4 0 -11.1668
74 1 14.4 8 1.6 -11.6081
75 2 16 6.4 0 -9.90407
76 1 17.6 8 1.6 -11.8092
77 3 19.2 6.4 0 -11.3882
78 1 20.8 8 1.6 -11.7629
79 3 22.4 6.4 0 -11.1939
80 3 24 8 1.6 -11.184
81 1 25.6 6.4 0 -11.7365
82 3 27.2 8 1.6 -11.2302
83 1 28.8 6.4 0 -11.8115
84 3 30.4 8 1.6 -11.2006
85 1 32 6.4 0 -11.7085
86 2 33.6 8 1.6 -9.75105
87 1 35.2 6.4 0 -11.6657
88 3 36.8 8 1.6 -11.3479
89 1 38.4 6.4 0 -11.8134
90 3 40 8 1.6 -11.3668
91 1 41.6 6.4 0 -11.7034
92 1 43.2 8 1.6 -11.5006
93 1 44.8 6.4 0 -11.6359
94 2 46.4 8 1.6 -9.69741
95 1 48 6.4 0 -11.693
96 1 49.6 8 1.6 -11.8069
97 2 0 9.6 0 -9.78238
98 3 1.6 11.2 1.6 -11.2443
99 1 3.2 9.6 0 -11.5995
100 3 4.8 11.2 1.6 -11.3131
101 3 6.4 9.6 0 -11.2204
102 1 8 11.2 1.6 -11.6746
103 3 9.6 9.6 0 -11.1267
104 1 11.2 11.2 1.6 -11.6083
105 3 12.8 9.6 0 -10.9925
106 1 14.4 11.2 1.6 -11.648
107 3 16 9.6 0 -11.1974
108 3 17.6 11.2 1.6 -11.3995
109 3 19.2 9.6 0 -11.3406
110 1 20.8 11.2 1.6 -11.8123
111 3 22.4 9.6 0 -11.233
112 3 24 11.2 1.6 -11.0088
113 1 25.6 9.6 0 -11.5276
114 2 27.2 11.2 1.6 -9.80638
115 1 28.8 9.6 0 -11.7209
116 3 30.4 11.2 1.6 -11.1708
117 1 32 9.6 0 -11.5633
118 1 33.6 11.2 1.6 -11.5762
119 3 35.2 9.6 0 -11.0246
120 1 36.8 11.2 1.6 -11.7745
121 3 38.4 9.6 0 -11.3601
122 1 40 11.2 1.6 -11.773
123 2 41.6 9.6 0 -9.60762
124 1 43.2 11.2 1.6 -11.4573
125 1 44.8 9.6 0 -11.4635
126 1 46.4 11.2 1.6 -11.6259
127 3 48 9.6 0 -11.0485
128 1 49.6 11.2 1.6 -11.7499
129 2 0 12.8 0 -9.71522
130 3 1.6 14.4 1.6 -11.2398
131 1 3.2 12.8 0 -11.7486
132 3 4.8 14.4 1.6 -11.3293
133 3 6.4 12.8 0 -11.4618
134 1 8 14.4 1.6 -11.6293
135 3 9.6 12.8 0 -11.2258
136 1 11.2 14.4 1.6 -11.6911
137 1 12.8 12.8 0 -11.3712
138 1 14.4 14.4 1.6 -11.7553
139 3 16 12.8 0 -11.3541
140 3 17.6 14.4 1.6 -11.4607
141 3 19.2 12.8 0 -11.3875
142 3 20.8 14.4 1.6 -11.1815
143 3 22.4 12.8 0 -11.0774
144 1 24 14.4 1.6 -11.552
145 1 25.6 12.8 0 -11.6078
146 2 27.2 14.4 1.6 -9.85186
147 3 28.8 12.8 0 -11.1528
148 3 30.4 14.4 1.6 -11.2674
149 3 32 12.8 0 -11.0396
150 1 33.6 14.4 1.6 -11.7075
151 1 35.2 12.8 0 -11.4379
152 1 36.8 14.4 1.6 -11.7446
153 3 38.4 12.8 0 -10.8556
154 1 40 14.4 1.6 -11.7386
155 1 41.6 12.8 0 -11.378
156 1 43.2 14.4 1.6 -11.6541
157 2 44.8 12.8 0 -9.64796
158 2 46.4 14.4 1.6 -9.81297
159 1 48 12.8 0 -11.5912
160 3 49.6 14.4 1.6 -11.2326
161 1 0 16 0 -11.7061
162 2 1.6 17.6 1.6 -9.89746
163 1 3.2 16 0 -11.7544
164 3 4.8 17.6 1.6 -11.1111
165 1 6.4 16 0 -11.6499
166 1 8 17.6 1.6 -11.4405
167 3 9.6 16 0 -11.2244
168 3 11.2 17.6 1.6 -11.2527
169 3 12.8 16 0 -11.0751
170 1 14.4 17.6 1.6 -11.7692
171 2 16 16 0 -9.8819
172 1 17.6 17.6 1.6 -11.8641
173 1 19.2 16 0 -11.8092
174 3 20.8 17.6 1.6 -11.2198
175 1 22.4 16 0 -11.7132
176 3 24 17.6 1.6 -11.1552
177 3 25.6 16 0 -11.312
178 3 27.2 17.6 1.6 -11.3269
179 1 28.8 16 0 -11.6358
180 1 30.4 17.6 1.6 -11.6727
181 3 32 16 0 -11.2414
182 1 33.6 17.6 1.6 -11.8166
183 3 35.2 16 0 -11.0027
184 1 36.8 17.6 1.6 -11.7658
185 3 38.4 16 0 -11.1671
186 1 40 17.6 1.6 -11.8514
187 2 41.6 16 0 -9.7138
188 2 43.2 17.6 1.6 -9.80774
189 3 44.8 16 0 -11.1826
190 3 46.4 17.6 1.6 -11.245
191 1 48 16 0 -11.4291
192 3 49.6 17.6 1.6 -11.2377
193 3 0 19.2 0 -11.2902
194 1 1.6 20.8 1.6 -11.7438
195 3 3.2 19.2 0 -11.3067
196 2 4.8 20.8 1.6 -9.75713
197 1 6.4 19.2 0 -11.5009
198 1 8 20.8 1.6 -11.4665
199 3 9.6 19.2 0 -11.2041
200 3 11.2 20.8 1.6 -11.1781
201 1 12.8 19.2 0 -11.634
202 1 14.4 20.8 1.6 -11.5702
203 3 16 19.2 0 -11.1561
204 1 17.6 20.8 1.6 -11.7424
205 3 19.2 19.2 0 -11.2837
206 1 20.8 20.8 1.6 -11.5164
207 1 22.4 19.2 0 -11.6388
208 1 24 20.8 1.6 -11.3956
209 3 25.6 19.2 0 -11.2406
210 3 27.2 20.8 1.6 -11.115
211 1 28.8 19.2 0 -11.6963
212 1 30.4 20.8 1.6 -11.5793
213 3 32 19.2 0 -11.216
214 3 33.6 20.8 1.6 -11.3215
215 1 35.2 19.2 0 -11.6558
216 3 36.8 20.8 1.6 -11.2937
217 2 38.4 19.2 0 -9.83471
218 3 40 20.8 1.6 -11.3233
219 3 41.6 19.2 0 -11.3355
220 1 43.2 20.8 1.6 -11.8707
221 3 44.8 19.2 0 -11.3927
222 1 46.4 20.8 1.6 -11.6667
223 1 48 19.2 0 -11.5341
224 1 49.6 20.8 1.6 -11.623
225 3 0 22.4 0 -11.1712
226 1 1.6 24 1.6 -11.5335
227 3 3.2 22.4 0 -11.0612
228 3 4.8 24 1.6 -11.0443
229 1 6.4 22.4 0 -11.4857
230 3 8 24 1.6 -10.9865
231 1 9.6 22.4 0 -11.6329
232 1 11.2 24 1.6 -11.5244
233 1 12.8 22.4 0 -11.538
234 2 14.4 24 1.6 -9.61744
235 1 16 22.4 0 -11.6486
236 2 17.6 24 1.6 -9.82561
237 1 19.2 22.4 0 -11.7593
238 3 20.8 24 1.6 -11.3134
239 1 22.4 22.4 0 -11.4863
240 3 24 24 1.6 -11.1642
241 1 25.6 22.4 0 -11.7022
242 3 27.2 24 1.6 -11.3841
243 1 28.8 22.4 0 -11.707
244 2 30.4 24 1.6 -9.44774
245 1 32 22.4 0 -11.7593
246 3 33.6 24 1.6 -11.0838
247 1 35.2 22.4 0 -11.8405
248 3 36.8 24 1.6 -11.1289
249 1 38.4 22.4 0 -11.698
250 1 40 24 1.6 -11.6739
251 3 41.6 22.4 0 -11.2402
252 1 43.2 24 1.6 -11.5943
253 3 44.8 22.4 0 -11.2769
254 1 46.4 24 1.6 -11.4804
255 3 48 22.4 0 -11.0785
256 1 49.6 24 1.6 -11.5607
257 3 0 25.6 0 -10.9308
259 1 3.2 25.6 0 -11.5583
261 1 6.4 25.6 0 -11.7237
263 3 9.6 25.6 0 -11.1261
265 1 12.8 25.6 0 -11.6642
267 1 16 25.6 0 -11.5861
269 2 19.2 25.6 0 -9.87994
271 1 22.4 25.6 0 -11.7748
273 3 25.6 25.6 0 -11.2464
275 1 28.8 25.6 0 -11.6317
277 1 32 25.6 0 -11.597
279 1 35.2 25.6 0 -11.6269
281 1 38.4 25.6 0 -11.5326
283 3 41.6 25.6 0 -10.9983
285 1 44.8 25.6 0 -11.6259
287 1 48 25.6 0 -11.7003
258 1 1.6 27.2 1.6 -11.39
289 1 0 28.8 0 -11.6116
260 3 4.8 27.2 1.6 -11.1942
291 1 3.2 28.8 0 -11.6115
262 3 8 27.2 1.6 -11.3677
293 1 6.4 28.8 0 -11.6936
264 3 11.2 27.2 1.6 -11.111
295 1 9.6 28.8 0 -11.7469
266 1 14.4 27.2 1.6 -11.3755
297 1 12.8 28.8 0 -11.6287
268 1 17.6 27.2 1.6 -11.5972
299 1 16 28.8 0 -11.4528
270 3 20.8 27.2 1.6 -11.4296
301 3 19.2 28.8 0 -11.4091
272 1 24 27.2 1.6 -11.8108
303 2 22.4 28.8 0 -9.80896
305 1 25.6 28.8 0 -11.6622
274 3 27.2 27.2 1.6 -11.1434
307 2 28.8 28.8 0 -9.72068
276 1 30.4 27.2 1.6 -11.5439
309 2 32 28.8 0 -9.62471
278 3 33.6 27.2 1.6 -11.1701
311 1 35.2 28.8 0 -11.512
280 3 36.8 27.2 1.6 -11.2987
313 3 38.4 28.8 0 -11.1287
282 1 40 27.2 1.6 -11.7339
315 3 41.6 28.8 0 -11.0767
284 1 43.2 27.2 1.6 -11.4602
317 1 44.8 28.8 0 -11.5803
286 3 46.4 27.2 1.6 -10.9948
319 1 48 28.8 0 -11.7752
288 3 49.6 27.2 1.6 -11.086
290 3 1.6 30.4 1.6 -11.0661
321 1 0 32 0 -11.7352
292 3 4.8 30.4 1.6 -11.3677
323 3 3.2 32 0 -11.1722
294 3 8 30.4 1.6 -11.1915
325 1 6.4 32 0 -11.7465
296 3 11.2 30.4 1.6 -11.125
327 1 9.6 32 0 -11.7448
298 1 14.4 30.4 1.6 -11.3949
329 1 12.8 32 0 -11.6588
300 3 17.6 30.4 1.6 -11.1855
331 1 16 32 0 -11.6058
302 3 20.8 30.4 1.6 -11.4224
333 3 19.2 32 0 -11.2152
304 3 24 30.4 1.6 -11.1622
335 1 22.4 32 0 -11.7245
337 1 25.6 32 0 -11.5901
306 1 27.2 30.4 1.6 -11.6781
339 1 28.8 32 0 -11.6924
308 1 30.4 30.4 1.6 -11.6175
341 1 32 32 0 -11.7141
310 1 33.6 30.4 1.6 -11.6007
343 2 35.2 32 0 -9.66628
312 1 36.8 30.4 1.6 -11.674
345 3 38.4 32 0 -11.2607
314 1 40 30.4 1.6 -11.6121
347 3 41.6 32 0 -11.1261
316 1 43.2 30.4 1.6 -11.5599
349 3 44.8 32 0 -11.2416
318 3 46.4 30.4 1.6 -11.1235
351 3 48 32 0 -11.2001
320 2 49.6 30.4 1.6 -9.78373
322 3 1.6 33.6 1.6 -11.317
353 3 0 35.2 0 -11.2981
324 3 4.8 33.6 1.6 -11.3392
355 1 3.2 35.2 0 -11.8103
326 3 8 33.6 1.6 -11.2429
357 1 6.4 35.2 0 -11.8407
328 3 11.2 33.6 1.6 -11.3419
359 1 9.6 35.2 0 -11.8033
330 3 14.4 33.6 1.6 -11.1457
361 1 12.8 35.2 0 -11.6616
332 1 17.6 33.6 1.6 -11.7397
363 2 16 35.2 0 -9.66983
334 1 20.8 33.6 1.6 -11.7089
365 3 19.2 35.2 0 -11.3035
336 3 24 33.6 1.6 -11.2949
367 3 22.4 35.2 0 -11.3739
369 1 25.6 35.2 0 -11.5936
338 3 27.2 33.6 1.6 -10.95
371 1 28.8 35.2 0 -11.6642
340 3 30.4 33.6 1.6 -11.2423
373 1 32 35.2 0 -11.8525
342 3 33.6 33.6 1.6 -11.0317
375 1 35.2 35.2 0 -11.7815
344 3 36.8 33.6 1.6 -11.0792
377 3 38.4 35.2 0 -11.2605
346 1 40 33.6 1.6 -11.5913
379 3 41.6 35.2 0 -11.1258
348 1 43.2 33.6 1.6 -11.7804
381 3 44.8 35.2 0 -11.0783
350 1 46.4 33.6 1.6 -11.6772
383 1 48 35.2 0 -11.692
352 1 49.6 33.6 1.6 -11.6548
354 2 1.6 36.8 1.6 -9.87876
385 3 0 38.4 0 -11.3552
356 3 4.8 36.8 1.6 -11.1651
387 2 3.2 38.4 0 -9.87044
358 3 8 36.8 1.6 -11.3527
389 1 6.4 38.4 0 -11.6548
360 3 11.2 36.8 1.6 -11.1717
391 3 9.6 38.4 0 -11.3033
362 1 14.4 36.8 1.6 -11.5875
393 2 12.8 38.4 0 -9.66998
364 1 17.6 36.8 1.6 -11.7698
395 3 16 38.4 0 -11.1554
366 1 20.8 36.8 1.6 -11.8773
397 3 19.2 38.4 0 -11.3392
368 3 24 36.8 1.6 -11.2542
399 3 22.4 38.4 0 -11.2391
401 1 25.6 38.4 0 -11.4065
370 2 27.2 36.8 1.6 -9.51449
403 1 28.8 38.4 0 -11.4925
372 3 30.4 36.8 1.6 -11.105
405 3 32 38.4 0 -11.2359
374 2 33.6 36.8 1.6 -9.78776
407 1 35.2 38.4 0 -11.5335
376 2 36.8 36.8 1.6 -9.80769
409 3 38.4 38.4 0 -11.265
378 1 40 36.8 1.6 -11.7807
411 3 41.6 38.4 0 -11.2029
380 1 43.2 36.8 1.6 -11.7795
413 1 44.8 38.4 0 -11.7236
382 2 46.4 36.8 1.6 -9.75574
415 1 48 38.4 0 -11.8463
384 3 49.6 36.8 1.6 -11.3393
386 3 1.6 40 1.6 -11.351
417 1 0 41.6 0 -11.8767
388 1 4.8 40 1.6 -11.4734
419 3 3.2 41.6 0 -11.1666
390 3 8 40 1.6 -11.2084
421 1 6.4 41.6 0 -11.4513
392 1 11.2 40 1.6 -11.8301
423 3 9.6 41.6 0 -11.4131
394 1 14.4 40 1.6 -11.5144
425 3 12.8 41.6 0 -11.2708
396 3 17.6 40 1.6 -11.2546
427 3 16 41.6 0 -11.1118
398 1 20.8 40 1.6 -11.7758
429 3 19.2 41.6 0 -11.3409
400 1 24 40 1.6 -11.4743
431 3 22.4 41.6 0 -11.1886
433 3 25.6 41.6 0 -11.2778
402 1 27.2 40 1.6 -11.4001
435 3 28.8 41.6 0 -11.0789
404 1 30.4 40 1.6 -11.536
437 3 32 41.6 0 -11.0745
406 1 33.6 40 1.6 -11.6058
439 1 35.2 41.6 0 -11.5185
408 3 36.8 40 1.6 -11.185
441 2 38.4 41.6 0 -9.756
410 1 40 40 1.6 -11.8239
443 3 41.6 41.6 0 -11.2995
412 1 43.2 40 1.6 -11.8166
445 3 44.8 41.6 0 -11.2272
414 3 46.4 40 1.6 -11.2396
447 1 48 41.6 0 -11.7657
416 3 49.6 40 1.6 -11.3391
418 3 1.6 43.2 1.6 -11.2756
449 3 0 44.8 0 -11.2505
420 1 4.8 43.2 1.6 -11.5168
451 3 3.2 44.8 0 -11.2423
422 2 8 43.2 1.6 -9.80747
453 3 6.4 44.8 0 -11.1011
424 3 11.2 43.2 1.6 -11.2383
455 2 9.6 44.8 0 -9.85381
426 1 14.4 43.2 1.6 -11.5262
457 3 12.8 44.8 0 -11.0318
428 1 17.6 43.2 1.6 -11.6074
459 1 16 44.8 0 -11.3602
430 1 20.8 43.2 1.6 -11.5641
461 3 19.2 44.8 0 -11.1228
432 1 24 43.2 1.6 -11.5205
463 2 22.4 44.8 0 -9.72466
465 3 25.6 44.8 0 -11.4721
434 3 27.2 43.2 1.6 -11.2786
467 3 28.8 44.8 0 -11.4113
436 1 30.4 43.2 1.6 -11.7083
469 3 32 44.8 0 -11.3604
438 1 33.6 43.2 1.6 -11.6924
471 3 35.2 44.8 0 -11.1635
440 1 36.8 43.2 1.6 -11.7696
473 3 38.4 44.8 0 -11.1657
442 1 40 43.2 1.6 -11.7016
475 3 41.6 44.8 0 -11.2393
444 3 43.2 43.2 1.6 -11.218
477 3 44.8 44.8 0 -11.1867
446 2 46.4 43.2 1.6 -9.75151
479 1 48 44.8 0 -11.576
448 3 49.6 43.2 1.6 -11.2623
450 1 1.6 46.4 1.6 -11.65
481 3 0 48 0 -11.3302
452 1 4.8 46.4 1.6 -11.5845
483 3 3.2 48 0 -11.1222
454 1 8 46.4 1.6 -11.701
485 3 6.4 48 0 -11.1291
456 1 11.2 46.4 1.6 -11.6055
487 1 9.6 48 0 -11.563
458 1 14.4 46.4 1.6 -11.3546
489 3 12.8 48 0 -11.0695
460 1 17.6 46.4 1.6 -11.39
491 1 16 48 0 -11.4921
462 1 20.8 46.4 1.6 -11.43
493 3 19.2 48 0 -11.1522
464 1 24 46.4 1.6 -11.4356
495 1 22.4 48 0 -11.6669
497 1 25.6 48 0 -11.8239
466 3 27.2 46.4 1.6 -11.2769
499 1 28.8 48 0 -11.6992
468 3 30.4 46.4 1.6 -11.2641
501 1 32 48 0 -11.6089
470 1 33.6 46.4 1.6 -11.8164
503 3 35.2 48 0 -11.2383
472 1 36.8 46.4 1.6 -11.8533
505 3 38.4 48 0 -11.2048
474 1 40 46.4 1.6 -11.7662
507 3 41.6 48 0 -11.1247
476 1 43.2 46.4 1.6 -11.7642
509 3 44.8 48 0 -11.2083
478 1 46.4 46.4 1.6 -11.5557
511 3 48 48 0 -11.0312
480 1 49.6 46.4 1.6 -11.6403
482 1 1.6 49.6 1.6 -11.6379
484 1 4.8 49.6 1.6 -11.6766
486 1 8 49.6 1.6 -11.6767
488 2 11.2 49.6 1.6 -9.83693
490 3 14.4 49.6 1.6 -11.0028
492 1 17.6 49.6 1.6 -11.4535
494 3 20.8 49.6 1.6 -11.0787
496 3 24 49.6 1.6 -11.2691
498 3 27.2 49.6 1.6 -11.1986
500 1 30.4 49.6 1.6 -11.6163
502 1 33.6 49.6 1.6 -11.824
504 1 36.8 49.6 1.6 -11.8366
506 1 40 49.6 1.6 -11.8119
508 1 43.2 49.6 1.6 -11.7446
510 1 46.4 49.6 1.6 -11.5653
512 1 49.6 49.6 1.6 -11.6461
513 1 0 0 3.2 -11.5082
514 1 1.6 1.6 4.8 -11.4959
515 1 3.2 0 3.2 -11.4749
516 3 4.8 1.6 4.8 -11.2386
517 3 6.4 0 3.2 -11.191
518 1 8 1.6 4.8 -11.6524
519 3 9.6 0 3.2 -11.1918
520 1 11.2 1.6 4.8 -11.4544
521 3 12.8 0 3.2 -11.2368
522 1 14.4 1.6 4.8 -11.7445
523 2 16 0 3.2 -9.69776
524 1 17.6 1.6 4.8 -11.6439
525 1 19.2 0 3.2 -11.4747
526 3 20.8 1.6 4.8 -11.1267
527 3 22.4 0 3.2 -11.3287
528 3 24 1.6 4.8 -11.2678
529 1 25.6 0 3.2 -11.8206
530 3 27.2 1.6 4.8 -11.3059
531 1 28.8 0 3.2 -11.7069
532 3 30.4 1.6 4.8 -11.2547
533 3 32 0 3.2 -11.3711
534 1 33.6 1.6 4.8 -11.811
535 3 35.2 0 3.2 -11.2641
536 1 36.8 1.6 4.8 -11.7987
537 3 38.4 0 3.2 -11.2726
538 1 40 1.6 4.8 -11.8107
539 3 41.6 0 3.2 -11.0816
540 1 43.2 1.6 4.8 -11.5653
541 1 44.8 0 3.2 -11.291
542 2 46.4 1.6 4.8 -9.31233
543 1 48 0 3.2 -11.3435
544 3 49.6 1.6 4.8 -10.9955
545 1 0 3.2 3.2 -11.4639
546 1 1.6 4.8 4.8 -11.4561
547 1 3.2 3.2 3.2 -11.5083
548 3 4.8 4.8 4.8 -11.1986
549 1 6.4 3.2 3.2 -11.6897
550 3 8 4.8 4.8 -11.1548
551 1 9.6 3.2 3.2 -11.3979
552 1 11.2 4.8 4.8 -11.474
553 1 12.8 3.2 3.2 -11.5442
554 3 14.4 4.8 4.8 -11.1962
555 2 16 3.2 3.2 -9.78686
556 1 17.6 4.8 4.8 -11.8007
557 1 19.2 3.2 3.2 -11.4742
558 1 20.8 4.8 4.8 -11.6365
559 1 22.4 3.2 3.2 -11.5529
560 1 24 4.8 4.8 -11.4975
561 1 25.6 3.2 3.2 -11.7432
562 3 27.2 4.8 4.8 -11.0933
563 1 28.8 3.2 3.2 -11.8438
564 1 30.4 4.8 4.8 -11.747
565 3 32 3.2 3.2 -11.3527
566 3 33.6 4.8 4.8 -11.4039
567 1 35.2 3.2 3.2 -11.67
568 3 36.8 4.8 4.8 -11.1017
569 3 38.4 3.2 3.2 -11.1651
570 1 40 4.8 4.8 -11.6566
571 2 41.6 3.2 3.2 -9.8353
572 3 43.2 4.8 4.8 -11.1493
573 1 44.8 3.2 3.2 -11.5237
574 1 46.4 4.8 4.8 -11.5169
575 1 48 3.2 3.2 -11.5938
576 2 49.6 4.8 4.8 -9.56241
577 3 0 6.4 3.2 -11.2423
578 3 1.6 8 4.8 -11.0373
579 1 3.2 6.4 3.2 -11.6021
580 1 4.8 8 4.8 -11.5271
581 1 6.4 6.4 3.2 -11.6069
582 3 8 8 4.8 -11.1
583 1 9.6 6.4 3.2 -11.5386
584 2 11.2 8 4.8 -9.75452
585 2 12.8 6.4 3.2 -9.72999
586 1 14.4 8 4.8 -11.736
587 3 16 6.4 3.2 -11.2941
588 1 17.6 8 4.8 -11.8233
589 3 19.2 6.4 3.2 -11.2236
590 3 20.8 8 4.8 -11.2323
591 1 22.4 6.4 3.2 -11.5349
592 1 24 8 4.8 -11.5047
593 1 25.6 6.4 3.2 -11.5687
594 1 27.2 8 4.8 -11.6917
595 1 28.8 6.4 3.2 -11.6742
596 1 30.4 8 4.8 -11.5779
597 1 32 6.4 3.2 -11.7144
598 3 33.6 8 4.8 -11.247
599 1 35.2 6.4 3.2 -11.7537
600 3 36.8 8 4.8 -11.3873
601 1 38.4 6.4 3.2 -11.7567
602 3 40 8 4.8 -11.3064
603 1 41.6 6.4 3.2 -11.7561
604 3 43.2 8 4.8 -11.1664
605 2 44.8 6.4 3.2 -9.71819
606 1 46.4 8 4.8 -11.7266
607 3 48 6.4 3.2 -11.1894
608 1 49.6 8 4.8 -11.7979
609 3 0 9.6 3.2 -11.3483
610 1 1.6 11.2 4.8 -11.6744
611 1 3.2 9.6 3.2 -11.5781
612 3 4.8 11.2 4.8 -11.1151
613 1 6.4 9.6 3.2 -11.5146
614 1 8 11.2 4.8 -11.6957
615 1 9.6 9.6 3.2 -11.4773
616 3 11.2 11.2 4.8 -11.2891
617 1 12.8 9.6 3.2 -11.5151
618 3 14.4 11.2 4.8 -11.3442
619 1 16 9.6 3.2 -11.6092
620 3 17.6 11.2 4.8 -11.4524
621 3 19.2 9.6 3.2 -11.3647
622 2 20.8 11.2 4.8 -9.74989
623 1 22.4 9.6 3.2 -11.5614
624 1 24 11.2 4.8 -11.4768
625 2 25.6 9.6 3.2 -9.71045
626 1 27.2 11.2 4.8 -11.6223
627 3 28.8 9.6 3.2 -11.124
628 1 30.4 11.2 4.8 -11.4334
629 1 32 9.6 3.2 -11.5186
630 1 33.6 11.2 4.8 -11.4989
631 3 35.2 9.6 3.2 -11.335
632 1 36.8 11.2 4.8 -11.8617
633 3 38.4 9.6 3.2 -11.4616
634 3 40 11.2 4.8 -11.3749
635 3 41.6 9.6 3.2 -11.2617
636 1 43.2 11.2 4.8 -11.6999
637 1 44.8 9.6 3.2 -11.5041
638 1 46.4 11.2 4.8 -11.6919
639 2 48 9.6 3.2 -9.72287
640 1 49.6 11.2 4.8 -11.7825
641 3 0 12.8 3.2 -11.3784
642 1 1.6 14.4 4.8 -11.6862
643 1 3.2 12.8 3.2 -11.7264
644 3 4.8 14.4 4.8 -11.257
645 3 6.4 12.8 3.2 -11.1914
646 1 8 14.4 4.8 -11.6051
647 3 9.6 12.8 3.2 -11.1231
648 1 11.2 14.4 4.8 -11.7758
649 3 12.8 12.8 3.2 -11.2073
650 1 14.4 14.4 4.8 -11.8774
651 3 16 12.8 3.2 -11.477
652 1 17.6 14.4 4.8 -11.9116
653 3 19.2 12.8 3.2 -11.5105
654 1 20.8 14.4 4.8 -11.5639
655 1 22.4 12.8 3.2 -11.4294
656 1 24 14.4 4.8 -11.3429
657 1 25.6 12.8 3.2 -11.5275
658 3 27.2 14.4 4.8 -11.2309
659 1 28.8 12.8 3.2 -11.6752
660 3 30.4 14.4 4.8 -11.116
661 1 32 12.8 3.2 -11.5106
662 1 33.6 14.4 4.8 -11.5958
663 3 35.2 12.8 3.2 -10.9922
664 1 36.8 14.4 4.8 -11.7423
665 3 38.4 12.8 3.2 -11.4172
666 3 40 14.4 4.8 -11.16
667 3 41.6 12.8 3.2 -11.2162
668 1 43.2 14.4 4.8 -11.5697
669 3 44.8 12.8 3.2 -11.1053
670 3 46.4 14.4 4.8 -11.2074
671 3 48 12.8 3.2 -11.2204
672 1 49.6 14.4 4.8 -11.7559
673 3 0 16 3.2 -11.3261
674 1 1.6 17.6 4.8 -11.6555
675 1 3.2 16 3.2 -11.6878
676 2 4.8 17.6 4.8 -9.71169
677 1 6.4 16 3.2 -11.4922
678 1 8 17.6 4.8 -11.5322
679 1 9.6 16 3.2 -11.4606
680 1 11.2 17.6 4.8 -11.7981
681 3 12.8 16 3.2 -11.2388
682 1 14.4 17.6 4.8 -11.813
683 3 16 16 3.2 -11.3066
684 1 17.6 17.6 4.8 -11.8527
685 3 19.2 16 3.2 -11.3205
686 1 20.8 17.6 4.8 -11.6012
687 1 22.4 16 3.2 -11.4121
688 1 24 17.6 4.8 -11.4783
689 2 25.6 16 3.2 -9.73386
690 1 27.2 17.6 4.8 -11.6169
691 1 28.8 16 3.2 -11.7376
692 1 30.4 17.6 4.8 -11.7568
693 3 32 16 3.2 -11.1861
694 2 33.6 17.6 4.8 -9.79304
695 3 35.2 16 3.2 -11.2051
696 1 36.8 17.6 4.8 -11.5451
697 3 38.4 16 3.2 -11.2395
698 1 40 17.6 4.8 -11.5259
699 3 41.6 16 3.2 -11.1505
700 1 43.2 17.6 4.8 -11.5853
701 1 44.8 16 3.2 -11.7051
702 3 46.4 17.6 4.8 -11.293
703 1 48 16 3.2 -11.7902
704 2 49.6 17.6 4.8 -9.83498
705 3 0 19.2 3.2 -11.2906
706 3 1.6 20.8 4.8 -11.2254
707 1 3.2 19.2 3.2 -11.7114
708 3 4.8 20.8 4.8 -11.1999
709 1 6.4 19.2 3.2 -11.5457
710 3 8 20.8 4.8 -11.2202
711 3 9.6 19.2 3.2 -11.2802
712 3 11.2 20.8 4.8 -11.3669
713 3 12.8 19.2 3.2 -11.2748
714 1 14.4 20.8 4.8 -11.6818
715 3 16 19.2 3.2 -11.2074
716 1 17.6 20.8 4.8 -11.7371
717 3 19.2 19.2 3.2 -11.2412
718 1 20.8 20.8 4.8 -11.6461
719 1 22.4 19.2 3.2 -11.453
720 3 24 20.8 4.8 -10.7622
721 1 25.6 19.2 3.2 -11.5847
722 1 27.2 20.8 4.8 -11.6386
723 3 28.8 19.2 3.2 -10.9899
724 1 30.4 20.8 4.8 -11.675
725 3 32 19.2 3.2 -11.3819
726 3 33.6 20.8 4.8 -11.3094
727 3 35.2 19.2 3.2 -11.272
728 1 36.8 20.8 4.8 -11.6487
729 3 38.4 19.2 3.2 -11.2807
730 3 40 20.8 4.8 -11.1602
731 3 41.6 19.2 3.2 -11.3767
732 1 43.2 20.8 4.8 -11.7045
733 3 44.8 19.2 3.2 -11.3404
734 3 46.4 20.8 4.8 -11.2354
735 1 48 19.2 3.2 -11.7052
736 3 49.6 20.8 4.8 -11.2659
737 2 0 22.4 3.2 -9.70524
738 2 1.6 24 4.8 -9.76764
739 1 3.2 22.4 3.2 -11.6594
740 2 4.8 24 4.8 -9.72911
741 1 6.4 22.4 3.2 -11.6797
742 3 8 24 4.8 -11.083
743 1 9.6 22.4 3.2 -11.7066
744 3 11.2 24 4.8 -11.1244
745 1 12.8 22.4 3.2 -11.6356
746 3 14.4 24 4.8 -11.1857
747 3 16 22.4 3.2 -11.143
748 1 17.6 24 4.8 -11.6244
749 3 19.2 22.4 3.2 -11.1119
750 1 20.8 24 4.8 -11.6073
751 1 22.4 22.4 3.2 -11.5313
752 1 24 24 4.8 -11.6109
753 1 25.6 22.4 3.2 -11.6906
754 3 27.2 24 4.8 -11.0964
755 1 28.8 22.4 3.2 -11.5531
756 1 30.4 24 4.8 -11.5007
757 1 32 22.4 3.2 -11.518
758 1 33.6 24 4.8 -11.4775
759 1 35.2 22.4 3.2 -11.6244
760 1 36.8 24 4.8 -11.4916
761 1 38.4 22.4 3.2 -11.6696
762 1 40 24 4.8 -11.6295
763 3 41.6 22.4 3.2 -11.1789
764 1 43.2 24 4.8 -11.6023
765 2 44.8 22.4 3.2 -9.72257
766 2 46.4 24 4.8 -9.79866
767 1 48 22.4 3.2 -11.5635
768 3 49.6 24 4.8 -11.1228
769 1 0 25.6 3.2 -11.5964
771 1 3.2 25.6 3.2 -11.5775
773 1 6.4 25.6 3.2 -11.8368
775 1 9.6 25.6 3.2 -11.7968
777 1 12.8 25.6 3.2 -11.6722
779 3 16 25.6 3.2 -11.0764
781 2 19.2 25.6 3.2 -9.84083
783 3 22.4 25.6 3.2 -11.1661
785 3 25.6 25.6 3.2 -11.299
787 1 28.8 25.6 3.2 -11.5821
789 1 32 25.6 3.2 -11.4937
791 1 35.2 25.6 3.2 -11.6991
793 3 38.4 25.6 3.2 -11.2498
795 3 41.6 25.6 3.2 -10.9886
797 1 44.8 25.6 3.2 -11.4848
799 1 48 25.6 3.2 -11.5945
770 2 1.6 27.2 4.8 -9.78346
801 1 0 28.8 3.2 -11.6518
772 3 4.8 27.2 4.8 -11.3946
803 1 3.2 28.8 3.2 -11.7664
774 3 8 27.2 4.8 -11.2914
805 2 6.4 28.8 3.2 -9.8329
776 3 11.2 27.2 4.8 -11.245
807 1 9.6 28.8 3.2 -11.8675
778 3 14.4 27.2 4.8 -11.1217
809 1 12.8 28.8 3.2 -11.5228
780 1 17.6 27.2 4.8 -11.6668
811 1 16 28.8 3.2 -11.5632
782 1 20.8 27.2 4.8 -11.6422
813 3 19.2 28.8 3.2 -11.4246
784 1 24 27.2 4.8 -11.4524
815 3 22.4 28.8 3.2 -11.4293
817 3 25.6 28.8 3.2 -11.2167
786 1 27.2 27.2 4.8 -11.6469
819 3 28.8 28.8 3.2 -11.206
788 1 30.4 27.2 4.8 -11.628
821 3 32 28.8 3.2 -11.2356
790 3 33.6 27.2 4.8 -11.218
823 3 35.2 28.8 3.2 -11.3436
792 3 36.8 27.2 4.8 -11.4483
825 3 38.4 28.8 3.2 -11.3636
794 3 40 27.2 4.8 -11.2696
827 1 41.6 28.8 3.2 -11.5326
796 1 43.2 27.2 4.8 -11.5841
829 1 44.8 28.8 3.2 -11.5659
798 3 46.4 27.2 4.8 -11.1829
831 1 48 28.8 3.2 -11.7246
800 3 49.6 27.2 4.8 -11.1671
802 3 1.6 30.4 4.8 -11.2304
833 1 0 32 3.2 -11.7242
804 3 4.8 30.4 4.8 -11.3787
835 1 3.2 32 3.2 -11.8469
806 3 8 30.4 4.8 -11.3916
837 1 6.4 32 3.2 -11.8675
808 3 11.2 30.4 4.8 -11.1241
839 1 9.6 32 3.2 -11.8412
810 1 14.4 30.4 4.8 -11.6138
841 1 12.8 32 3.2 -11.7213
812 3 17.6 30.4 4.8 -11.374
843 3 16 32 3.2 -11.1934
814 3 20.8 30.4 4.8 -11.3074
845 1 19.2 32 3.2 -11.6301
816 3 24 30.4 4.8 -11.2218
847 1 22.4 32 3.2 -11.7253
849 1 25.6 32 3.2 -11.6749
818 1 27.2 30.4 4.8 -11.6111
851 3 28.8 32 3.2 -11.1026
820 1 30.4 30.4 4.8 -11.7383
853 1 32 32 3.2 -11.5906
822 3 33.6 30.4 4.8 -11.1098
855 1 35.2 32 3.2 -11.5784
824 3 36.8 30.4 4.8 -11.2797
857 1 38.4 32 3.2 -11.4528
826 3 40 30.4 4.8 -11.1148
859 1 41.6 32 3.2 -11.5058
828 3 43.2 30.4 4.8 -11.0198
861 3 44.8 32 3.2 -11.2257
830 1 46.4 30.4 4.8 -11.756
863 2 48 32 3.2 -9.77158
832 2 49.6 30.4 4.8 -9.75766
834 2 1.6 33.6 4.8 -9.72913
865 3 0 35.2 3.2 -11.1697
836 3 4.8 33.6 4.8 -11.2063
867 1 3.2 35.2 3.2 -11.7385
838 3 8 33.6 4.8 -11.2051
869 1 6.4 35.2 3.2 -11.8121
840 3 11.2 33.6 4.8 -11.1861
871 1 9.6 35.2 3.2 -11.8145
842 3 14.4 33.6 4.8 -11.323
873 3 12.8 35.2 3.2 -11.2411
844 1 17.6 33.6 4.8 -11.6059
875 3 16 35.2 3.2 -11.2706
846 1 20.8 33.6 4.8 -11.4559
877 3 19.2 35.2 3.2 -10.993
848 3 24 33.6 4.8 -11.2162
879 3 22.4 35.2 3.2 -11.3923
881 1 25.6 35.2 3.2 -11.7082
850 1 27.2 33.6 4.8 -11.4732
883 1 28.8 35.2 3.2 -11.6382
852 3 30.4 33.6 4.8 -10.9777
885 1 32 35.2 3.2 -11.6306
854 1 33.6 33.6 4.8 -11.5249
887 1 35.2 35.2 3.2 -11.5136
856 1 36.8 33.6 4.8 -11.3881
889 1 38.4 35.2 3.2 -11.3758
858 1 40 33.6 4.8 -11.3885
891 3 41.6 35.2 3.2 -11.0741
860 2 43.2 33.6 4.8 -9.75265
893 3 44.8 35.2 3.2 -11.2305
862 1 46.4 33.6 4.8 -11.7203
895 1 48 35.2 3.2 -11.5956
864 2 49.6 33.6 4.8 -9.77208
866 1 1.6 36.8 4.8 -11.4197
897 1 0 38.4 3.2 -11.8015
868 3 4.8 36.8 4.8 -10.9481
899 1 3.2 38.4 3.2 -11.6492
870 2 8 36.8 4.8 -9.72854
901 1 6.4 38.4 3.2 -11.7295
872 1 11.2 36.8 4.8 -11.5983
903 3 9.6 38.4 3.2 -11.2721
874 1 14.4 36.8 4.8 -11.5944
905 1 12.8 38.4 3.2 -11.459
876 1 17.6 36.8 4.8 -11.6489
907 1 16 38.4 3.2 -11.474
878 1 20.8 36.8 4.8 -11.7199
909 3 19.2 38.4 3.2 -11.2196
880 3 24 36.8 4.8 -11.3558
911 3 22.4 38.4 3.2 -11.2085
913 1 25.6 38.4 3.2 -11.5293
882 2 27.2 36.8 4.8 -9.51923
915 1 28.8 38.4 3.2 -11.5681
884 1 30.4 36.8 4.8 -11.658
917 2 32 38.4 3.2 -9.75601
886 1 33.6 36.8 4.8 -11.6482
919 3 35.2 38.4 3.2 -11.2217
888 1 36.8 36.8 4.8 -11.5358
921 3 38.4 38.4 3.2 -11.2476
890 1 40 36.8 4.8 -11.566
923 3 41.6 38.4 3.2 -11.275
892 1 43.2 36.8 4.8 -11.899
925 3 44.8 38.4 3.2 -11.2464
894 1 46.4 36.8 4.8 -11.6705
927 1 48 38.4 3.2 -11.7369
896 3 49.6 36.8 4.8 -11.2017
898 3 1.6 40 4.8 -11.1244
929 1 0 41.6 3.2 -11.8672
900 3 4.8 40 4.8 -11.0833
931 1 3.2 41.6 3.2 -11.6992
902 2 8 40 4.8 -9.77734
933 1 6.4 41.6 3.2 -11.5228
904 2 11.2 40 4.8 -9.67262
935 3 9.6 41.6 3.2 -11.3557
906 1 14.4 40 4.8 -11.5081
937 2 12.8 41.6 3.2 -9.64363
908 3 17.6 40 4.8 -11.2195
939 1 16 41.6 3.2 -11.5928
910 1 20.8 40 4.8 -11.6033
941 3 19.2 41.6 3.2 -11.1616
912 1 24 40 4.8 -11.5657
943 1 22.4 41.6 3.2 -11.3779
945 1 25.6 41.6 3.2 -11.4728
914 3 27.2 40 4.8 -11.017
947 1 28.8 41.6 3.2 -11.6108
916 3 30.4 40 4.8 -11.1352
949 1 32 41.6 3.2 -11.5327
918 1 33.6 40 4.8 -11.7371
951 3 35.2 41.6 3.2 -11.2118
920 1 36.8 40 4.8 -11.8808
953 3 38.4 41.6 3.2 -11.3306
922 1 40 40 4.8 -11.7095
955 2 41.6 41.6 3.2 -9.75447
924 3 43.2 40 4.8 -11.1875
957 1 44.8 41.6 3.2 -11.8333
926 2 46.4 40 4.8 -9.75111
959 1 48 41.6 3.2 -11.7835
928 3 49.6 40 4.8 -11.206
930 3 1.6 43.2 4.8 -11.2032
961 2 0 44.8 3.2 -9.72623
932 3 4.8 43.2 4.8 -11.0323
963 1 3.2 44.8 3.2 -11.4991
934 1 8 43.2 4.8 -11.6266
965 1 6.4 44.8 3.2 -11.5345
936 1 11.2 43.2 4.8 -11.7235
967 3 9.6 44.8 3.2 -11.1489
938 3 14.4 43.2 4.8 -11.1521
969 1 12.8 44.8 3.2 -11.5676
940 3 17.6 43.2 4.8 -11.2742
971 1 16 44.8 3.2 -11.4443
942 1 20.8 43.2 4.8 -11.61
973 2 19.2 44.8 3.2 -9.6584
944 2 24 43.2 4.8 -9.58253
975 1 22.4 44.8 3.2 -11.2993
977 1 25.6 44.8 3.2 -11.6011
946 3 27.2 43.2 4.8 -11.1688
979 1 28.8 44.8 3.2 -11.8099
948 3 30.4 43.2 4.8 -11.1814
981 3 32 44.8 3.2 -11.3637
950 1 33.6 43.2 4.8 -11.7887
983 3 35.2 44.8 3.2 -11.3559
952 3 36.8 43.2 4.8 -11.329
985 2 38.4 44.8 3.2 -9.82316
954 1 40 43.2 4.8 -11.5705
987 1 41.6 44.8 3.2 -11.6496
956 3 43.2 43.2 4.8 -11.2065
989 1 44.8 44.8 3.2 -11.6499
958 3 46.4 43.2 4.8 -10.9967
991 1 48 44.8 3.2 -11.4801
960 3 49.6 43.2 4.8 -11.2044
962 1 1.6 46.4 4.8 -11.6174
993 3 0 48 3.2 -11.0422
964 2 4.8 46.4 4.8 -9.63089
995 1 3.2 48 3.2 -11.5283
966 1 8 46.4 4.8 -11.6685
997 3 6.4 48 3.2 -11.0337
968 1 11.2 46.4 4.8 -11.6502
999 3 9.6 48 3.2 -11.0855
970 3 14.4 46.4 4.8 -11.0539
1001 1 12.8 48 3.2 -11.4922
972 3 17.6 46.4 4.8 -11.233
1003 1 16 48 3.2 -11.4504
974 1 20.8 46.4 4.8 -11.5553
1005 1 19.2 48 3.2 -11.4836
976 2 24 46.4 4.8 -9.61557
1007 1 22.4 48 3.2 -11.4365
1009 1 25.6 48 3.2 -11.62
978 2 27.2 46.4 4.8 -9.77826
1011 1 28.8 48 3.2 -11.6914
980 3 30.4 46.4 4.8 -11.3976
1013 3 32 48 3.2 -11.274
982 2 33.6 46.4 4.8 -9.91569
1015 3 35.2 48 3.2 -11.3594
984 3 36.8 46.4 4.8 -11.4006
1017 3 38.4 48 3.2 -11.3556
986 3 40 46.4 4.8 -11.2691
1019 3 41.6 48 3.2 -11.3286
988 3 43.2 46.4 4.8 -11.2939
1021 3 44.8 48 3.2 -11.0768
990 1 46.4 46.4 4.8 -11.5872
1023 2 48 48 3.2 -9.56721
992 1 49.6 46.4 4.8 -11.5442
994 3 1.6 49.6 4.8 -11.1308
996 2 4.8 49.6 4.8 -9.86966
998 1 8 49.6 4.8 -11.7801
1000 1 11.2 49.6 4.8 -11.7122
1002 1 14.4 49.6 4.8 -11.6401
1004 2 17.6 49.6 4.8 -9.65714
1006 1 20.8 49.6 4.8 -11.6664
1008 2 24 49.6 4.8 -9.80423
1010 2 27.2 49.6 4.8 -9.60565
1012 1 30.4 49.6 4.8 -11.663
1014 1 33.6 49.6 4.8 -11.7943
1016 2 36.8 49.6 4.8 -9.75848
1018 1 40 49.6 4.8 -11.83
1020 1 43.2 49.6 4.8 -11.6528
1022 1 46.4 49.6 4.8 -11.4403
1024 1 49.6 49.6 4.8 -11.6229
1025 3 0 0 6.4 -11.2216
1026 1 1.6 1.6 8 -11.737
1027 3 3.2 0 6.4 -11.3934
1028 1 4.8 1.6 8 -11.8136
1029 3 6.4 0 6.4 -11.2877
1030 1 8 1.6 8 -11.6327
1031 3 9.6 0 6.4 -11.2272
1032 1 11.2 1.6 8 -11.6572
1033 3 12.8 0 6.4 -11.2153
1034 3 14.4 1.6 8 -11.2572
1035 3 16 0 6.4 -11.3661
1036 1 17.6 1.6 8 -11.8459
1037 2 19.2 0 6.4 -9.85931
1038 1 20.8 1.6 8 -11.7213
1039 3 22.4 0 6.4 -11.3696
1040 1 24 1.6 8 -11.7169
1041 1 25.6 0 6.4 -11.681
1042 3 27.2 1.6 8 -11.1125
1043 1 28.8 0 6.4 -11.5767
1044 1 30.4 1.6 8 -11.4865
1045 2 32 0 6.4 -9.71182
1046 1 33.6 1.6 8 -11.633
1047 2 35.2 0 6.4 -9.76481
1048 1 36.8 1.6 8 -11.8017
1049 3 38.4 0 6.4 -11.1213
1050 1 40 1.6 8 -11.7359
1051 3 41.6 0 6.4 -11.1293
1052 3 43.2 1.6 8 -11.1146
1053 1 44.8 0 6.4 -11.4418
1054 3 46.4 1.6 8 -11.0786
1055 1 48 0 6.4 -11.588
1056 3 49.6 1.6 8 -11.2732
1057 1 0 3.2 6.4 -11.47
1058 1 1.6 4.8 8 -11.5075
1059 3 3.2 3.2 6.4 -11.0397
1060 1 4.8 4.8 8 -11.8118
1061 3 6.4 3.2 6.4 -11.2731
1062 1 8 4.8 8 -11.7443
1063 1 9.6 3.2 6.4 -11.396
1064 2 11.2 4.8 8 -9.6143
1065 1 12.8 3.2 6.4 -11.5643
1066 1 14.4 4.8 8 -11.7679
1067 3 16 3.2 6.4 -11.312
1068 1 17.6 4.8 8 -11.6274
1069 3 19.2 3.2 6.4 -11.204
1070 1 20.8 4.8 8 -11.6541
1071 3 22.4 3.2 6.4 -11.2188
1072 3 24 4.8 8 -10.9758
1073 1 25.6 3.2 6.4 -11.7576
1074 3 27.2 4.8 8 -11.3311
1075 3 28.8 3.2 6.4 -11.2841
1076 1 30.4 4.8 8 -11.5206
1077 3 32 3.2 6.4 -11.3723
1078 3 33.6 4.8 8 -11.1437
1079 3 35.2 3.2 6.4 -11.2466
1080 1 36.8 4.8 8 -11.5915
1081 3 38.4 3.2 6.4 -11.2421
1082 1 40 4.8 8 -11.5519
1083 3 41.6 3.2 6.4 -11.1816
1084 3 43.2 4.8 8 -11.1133
1085 1 44.8 3.2 6.4 -11.5409
1086 1 46.4 4.8 8 -11.4513
1087 1 48 3.2 6.4 -11.5474
1088 1 49.6 4.8 8 -11.4983
1089 1 0 6.4 6.4 -11.5297
1090 2 1.6 8 8 -9.85641
1091 1 3.2 6.4 6.4 -11.6224
1092 3 4.8 8 8 -11.266
1093 3 6.4 6.4 6.4 -11.4054
1094 1 8 8 8 -11.8021
1095 3 9.6 6.4 6.4 -11.3159
1096 1 11.2 8 8 -11.7671
1097 3 12.8 6.4 6.4 -11.3435
1098 1 14.4 8 8 -11.585
1099 3 16 6.4 6.4 -11.2262
1100 1 17.6 8 8 -11.6258
1101 3 19.2 6.4 6.4 -11.3172
1102 3 20.8 8 8 -11.2855
1103 3 22.4 6.4 6.4 -11.1934