ITEM: TIMESTEP
0
ITEM: NUMBER OF ATOMS
8192
ITEM: BOX BOUNDS pp pp pp
0.0000000000000000e+00 5.1200000000000003e+01
0.0000000000000000e+00 5.1200000000000003e+01
0.0000000000000000e+00 5.1200000000000003e+01
ITEM: ATOMS id type x y z c_eng
1 3 0 0 0 -11.1651
2 1 1.6 1.6 1.6 -11.8124
3 3 3.2 0 0 -11.2417
4 1 4.8 1.6 1.6 -11.8417
5 3 6.4 0 0 -11.2417
6 1 8 1.6 1.6 -11.8417
7 3 9.6 0 0 -11.2033
8 1 11.2 1.6 1.6 -11.8417
9 3 12.8 0 0 -11.1232
10 1 14.4 1.6 1.6 -11.7096
11 1 16 0 0 -11.4013
12 1 17.6 1.6 1.6 -11.7096
13 3 19.2 0 0 -10.9566
14 1 20.8 1.6 1.6 -11.6979
15 1 22.4 0 0 -11.5618
16 3 24 1.6 1.6 -11.3284
17 1 25.6 0 0 -11.8414
18 3 27.2 1.6 1.6 -11.2423
19 1 28.8 0 0 -11.7495
20 3 30.4 1.6 1.6 -11.1959
21 2 32 0 0 -9.7858
22 1 33.6 1.6 1.6 -11.5719
23 3 35.2 0 0 -11.161
24 1 36.8 1.6 1.6 -11.6224
25 3 38.4 0 0 -11.2039
26 1 40 1.6 1.6 -11.6178
27 3 41.6 0 0 -11.125
28 1 43.2 1.6 1.6 -11.7358
29 3 44.8 0 0 -11.1657
30 1 46.4 1.6 1.6 -11.7049
31 2 48 0 0 -9.62108
32 1 49.6 1.6 1.6 -11.6407
33 3 0 3.2 0 -11.3404
34 1 1.6 4.8 1.6 -11.8414
35 3 3.2 3.2 0 -11.2414
36 1 4.8 4.8 1.6 -11.8417
37 3 6.4 3.2 0 -11.2414
38 1 8 4.8 1.6 -11.8417
39 3 9.6 3.2 0 -11.2414
40 1 11.2 4.8 1.6 -11.8417
41 3 12.8 3.2 0 -11.2045
42 1 14.4 4.8 1.6 -11.7811
43 2 16 3.2 0 -9.62044
44 1 17.6 4.8 1.6 -11.7511
45 3 19.2 3.2 0 -11.041
46 1 20.8 4.8 1.6 -11.7513
47 1 22.4 3.2 0 -11.6747
48 3 24 4.8 1.6 -11.2962
49 1 25.6 3.2 0 -11.8407
50 3 27.2 4.8 1.6 -11.2048
51 1 28.8 3.2 0 -11.8415
52 3 30.4 4.8 1.6 -11.3107
53 1 32 3.2 0 -11.7805
54 3 33.6 4.8 1.6 -11.0732
55 1 35.2 3.2 0 -11.673
56 3 36.8 4.8 1.6 -11.1665
57 1 38.4 3.2 0 -11.5973
58 2 40 4.8 1.6 -9.7057
59 1 41.6 3.2 0 -11.5739
60 3 43.2 4.8 1.6 -11.2576
61 3 44.8 3.2 0 -11.3214
62 1 46.4 4.8 1.6 -11.7124
63 3 48 3.2 0 -11.2511
64 1 49.6 4.8 1.6 -11.8475
65 3 0 6.4 0 -11.2383
66 1 1.6 8 1.6 -11.8412
67 3 3.2 6.4 0 -11.2432
68 1 4.8 8 1.6 -11.8681
69 3 6.4 6.4 0 -11.2414
70 1 8 8 1.6 -11.8415
71 3 9.6 6.4 0 -11.2414
72 1 11.2 8 1.6 -11.8417
73 3 12.8 6.4 0 -11.2036
74 1 14.4 8 1.6 -11.8124
75 2 16 6.4 0 -9.67664
76 1 17.6 8 1.6 -11.7811
77 2 19.2 6.4 0 -9.70717
78 1 20.8 8 1.6 -11.7524
79 3 22.4 6.4 0 -11.1521
80 1 24 8 1.6 -11.5207
81 1 25.6 6.4 0 -11.6294
82 2 27.2 8 1.6 -9.65344
83 1 28.8 6.4 0 -11.7505
84 3 30.4 8 1.6 -11.2017
85 1 32 6.4 0 -11.8377
86 3 33.6 8 1.6 -11.1562
87 1 35.2 6.4 0 -11.8412
88 3 36.8 8 1.6 -11.0821
89 1 38.4 6.4 0 -11.76
90 1 40 8 1.6 -11.5186
91 1 41.6 6.4 0 -11.7439
92 3 43.2 8 1.6 -11.1521
93 1 44.8 6.4 0 -11.7514
94 1 46.4 8 1.6 -11.7405
95 3 48 6.4 0 -11.2895
96 1 49.6 8 1.6 -11.841
97 3 0 9.6 0 -11.2408
98 1 1.6 11.2 1.6 -11.7381
99 3 3.2 9.6 0 -11.2042
100 2 4.8 11.2 1.6 -9.63941
101 3 6.4 9.6 0 -11.2037
102 1 8 11.2 1.6 -11.7247
103 3 9.6 9.6 0 -11.2423
104 1 11.2 11.2 1.6 -11.8413
105 3 12.8 9.6 0 -11.2417
106 1 14.4 11.2 1.6 -11.8417
107 3 16 9.6 0 -11.2036
108 1 17.6 11.2 1.6 -11.8415
109 3 19.2 9.6 0 -11.2039
110 1 20.8 11.2 1.6 -11.8093
111 3 22.4 9.6 0 -11.0822
112 1 24 11.2 1.6 -11.7165
113 1 25.6 9.6 0 -11.4907
114 3 27.2 11.2 1.6 -11.2199
115 1 28.8 9.6 0 -11.5523
116 3 30.4 11.2 1.6 -11.2634
117 1 32 9.6 0 -11.6006
118 1 33.6 11.2 1.6 -11.5547
119 1 35.2 9.6 0 -11.5654
120 1 36.8 11.2 1.6 -11.6557
121 3 38.4 9.6 0 -11.0596
122 1 40 11.2 1.6 -11.642
123 2 41.6 9.6 0 -9.7298
124 1 43.2 11.2 1.6 -11.7768
125 2 44.8 9.6 0 -9.7848
126 1 46.4 11.2 1.6 -11.8467
127 3 48 9.6 0 -11.1661
128 1 49.6 11.2 1.6 -11.8112
129 3 0 12.8 0 -11.1459
130 2 1.6 14.4 1.6 -9.67176
131 1 3.2 12.8 0 -11.7043
132 3 4.8 14.4 1.6 -11.0875
133 1 6.4 12.8 0 -11.6132
134 2 8 14.4 1.6 -9.66614
135 3 9.6 12.8 0 -11.1986
136 1 11.2 14.4 1.6 -11.8033
137 3 12.8 12.8 0 -11.2423
138 1 14.4 14.4 1.6 -11.8415
139 3 16 12.8 0 -11.2414
140 1 17.6 14.4 1.6 -11.8681
141 3 19.2 12.8 0 -11.3086
142 2 20.8 14.4 1.6 -9.76325
143 3 22.4 12.8 0 -11.2673
144 3 24 14.4 1.6 -11.3358
145 3 25.6 12.8 0 -11.2024
146 3 27.2 14.4 1.6 -11.396
147 1 28.8 12.8 0 -11.6212
148 3 30.4 14.4 1.6 -11.3106
149 2 32 12.8 0 -9.72455
150 1 33.6 14.4 1.6 -11.7813
151 3 35.2 12.8 0 -11.0825
152 1 36.8 14.4 1.6 -11.8675
153 3 38.4 12.8 0 -11.2444
154 1 40 14.4 1.6 -11.8419
155 3 41.6 12.8 0 -11.2057
156 1 43.2 14.4 1.6 -11.7597
157 3 44.8 12.8 0 -11.3044
158 3 46.4 14.4 1.6 -11.1366
159 3 48 12.8 0 -11.1137
160 1 49.6 14.4 1.6 -11.6231
161 1 0 16 0 -11.4943
162 2 1.6 17.6 1.6 -9.70196
163 1 3.2 16 0 -11.7175
164 2 4.8 17.6 1.6 -9.69369
165 1 6.4 16 0 -11.6721
166 1 8 17.6 1.6 -11.4714
167 1 9.6 16 0 -11.5594
168 1 11.2 17.6 1.6 -11.6753
169 3 12.8 16 0 -11.1232
170 1 14.4 17.6 1.6 -11.8414
171 3 16 16 0 -11.2414
172 1 17.6 17.6 1.6 -11.8413
173 3 19.2 16 0 -11.2029
174 1 20.8 17.6 1.6 -11.6224
175 1 22.4 16 0 -11.6069
176 3 24 17.6 1.6 -11.1663
177 1 25.6 16 0 -11.7625
178 3 27.2 17.6 1.6 -11.2432
179 1 28.8 16 0 -11.7408
180 3 30.4 17.6 1.6 -11.262
181 3 32 16 0 -11.2504
182 1 33.6 17.6 1.6 -11.6818
183 3 35.2 16 0 -11.2057
184 1 36.8 17.6 1.6 -11.812
185 3 38.4 16 0 -11.242
186 1 40 17.6 1.6 -11.8122
187 3 41.6 16 0 -11.2045
188 1 43.2 17.6 1.6 -11.715
189 3 44.8 16 0 -11.1983
190 2 46.4 17.6 1.6 -9.71862
191 1 48 16 0 -11.4798
192 3 49.6 17.6 1.6 -11.1296
193 3 0 19.2 0 -11.2509
194 1 1.6 20.8 1.6 -11.6807
195 3 3.2 19.2 0 -11.2266
196 2 4.8 20.8 1.6 -9.78488
197 1 6.4 19.2 0 -11.639
198 3 8 20.8 1.6 -11.1473
199 1 9.6 19.2 0 -11.6009
200 3 11.2 20.8 1.6 -11.2854
201 3 12.8 19.2 0 -11.1991
202 1 14.4 20.8 1.6 -11.5893
203 3 16 19.2 0 -11.2029
204 1 17.6 20.8 1.6 -11.6776
205 3 19.2 19.2 0 -11.0781
206 1 20.8 20.8 1.6 -11.6651
207 1 22.4 19.2 0 -11.6863
208 3 24 20.8 1.6 -11.1629
209 1 25.6 19.2 0 -11.841
210 3 27.2 20.8 1.6 -11.2051
211 1 28.8 19.2 0 -11.8675
212 3 30.4 20.8 1.6 -11.2349
213 2 32 19.2 0 -9.81617
214 2 33.6 20.8 1.6 -9.76795
215 2 35.2 19.2 0 -9.69952
216 1 36.8 20.8 1.6 -11.5235
217 3 38.4 19.2 0 -11.0824
218 1 40 20.8 1.6 -11.6786
219 3 41.6 19.2 0 -11.2048
220 1 43.2 20.8 1.6 -11.812
221 3 44.8 19.2 0 -11.2759
222 1 46.4 20.8 1.6 -11.7025
223 3 48 19.2 0 -11.2895
224 3 49.6 20.8 1.6 -11.2542
225 3 0 22.4 0 -11.309
226 1 1.6 24 1.6 -11.677
227 3 3.2 22.4 0 -11.2311
228 3 4.8 24 1.6 -11.3099
229 2 6.4 22.4 0 -9.78487
230 3 8 24 1.6 -11.3001
231 1 9.6 22.4 0 -11.6618
232 3 11.2 24 1.6 -11.0822
233 1 12.8 22.4 0 -11.5536
234 1 14.4 24 1.6 -11.4759
235 1 16 22.4 0 -11.4805
236 1 17.6 24 1.6 -11.5057
237 1 19.2 22.4 0 -11.5786
238 2 20.8 24 1.6 -9.69051
239 1 22.4 22.4 0 -11.7476
240 3 24 24 1.6 -11.2668
241 1 25.6 22.4 0 -11.841
242 3 27.2 24 1.6 -11.2044
243 1 28.8 22.4 0 -11.8407
244 3 30.4 24 1.6 -11.2323
245 1 32 22.4 0 -11.8971
246 3 33.6 24 1.6 -11.3422
247 1 35.2 22.4 0 -11.615
248 3 36.8 24 1.6 -10.9006
249 1 38.4 22.4 0 -11.4919
250 2 40 24 1.6 -9.64075
251 3 41.6 22.4 0 -11.0837
252 1 43.2 24 1.6 -11.721
253 3 44.8 22.4 0 -11.2438
254 1 46.4 24 1.6 -11.634
255 3 48 22.4 0 -11.2386
256 1 49.6 24 1.6 -11.6896
257 3 0 25.6 0 -11.1938
259 2 3.2 25.6 0 -9.83576
261 3 6.4 25.6 0 -11.286
263 1 9.6 25.6 0 -11.7465
265 1 12.8 25.6 0 -11.6055
267 2 16 25.6 0 -9.57765
269 1 19.2 25.6 0 -11.509
271 1 22.4 25.6 0 -11.6428
273 1 25.6 25.6 0 -11.6475
275 1 28.8 25.6 0 -11.5821
277 2 32 25.6 0 -9.76293
279 1 35.2 25.6 0 -11.6297
281 1 38.4 25.6 0 -11.493
283 1 41.6 25.6 0 -11.53
285 3 44.8 25.6 0 -11.1545
287 3 48 25.6 0 -11.2681
258 3 1.6 27.2 1.6 -11.1992
289 1 0 28.8 0 -11.7703
260 3 4.8 27.2 1.6 -11.3003
291 1 3.2 28.8 0 -11.6764
262 3 8 27.2 1.6 -11.2701
293 1 6.4 28.8 0 -11.767
264 3 11.2 27.2 1.6 -11.206
295 1 9.6 28.8 0 -11.78
266 3 14.4 27.2 1.6 -11.1388
297 1 12.8 28.8 0 -11.7177
268 1 17.6 27.2 1.6 -11.6662
299 2 16 28.8 0 -9.79815
270 1 20.8 27.2 1.6 -11.6607
301 3 19.2 28.8 0 -11.1504
272 2 24 27.2 1.6 -9.71237
303 3 22.4 28.8 0 -11.1648
305 2 25.6 28.8 0 -9.63547
274 1 27.2 27.2 1.6 -11.4355
307 1 28.8 28.8 0 -11.483
276 2 30.4 27.2 1.6 -9.64181
309 3 32 28.8 0 -11.2226
278 3 33.6 27.2 1.6 -11.2153
311 1 35.2 28.8 0 -11.6697
280 3 36.8 27.2 1.6 -11.2053
313 2 38.4 28.8 0 -9.78994
282 3 40 27.2 1.6 -11.1484
315 3 41.6 28.8 0 -11.1541
284 1 43.2 27.2 1.6 -11.6301
317 3 44.8 28.8 0 -11.1658
286 2 46.4 27.2 1.6 -9.7679
319 2 48 28.8 0 -9.75336
288 3 49.6 27.2 1.6 -11.2583
290 3 1.6 30.4 1.6 -11.2426
321 1 0 32 0 -11.8115
292 3 4.8 30.4 1.6 -11.2423
323 1 3.2 32 0 -11.8417
294 3 8 30.4 1.6 -11.242
325 1 6.4 32 0 -11.8417
296 3 11.2 30.4 1.6 -11.2432
327 1 9.6 32 0 -11.8116
298 3 14.4 30.4 1.6 -11.2883
329 1 12.8 32 0 -11.7722
300 3 17.6 30.4 1.6 -11.3023
331 1 16 32 0 -11.6458
302 1 20.8 30.4 1.6 -11.8539
333 3 19.2 32 0 -11.2381
304 1 24 30.4 1.6 -11.8196
335 3 22.4 32 0 -11.2045
337 2 25.6 32 0 -9.75388
306 2 27.2 30.4 1.6 -9.68433
339 3 28.8 32 0 -11.1362
308 2 30.4 30.4 1.6 -9.79925
341 1 32 32 0 -11.7188
310 3 33.6 30.4 1.6 -11.2912
343 1 35.2 32 0 -11.676
312 3 36.8 30.4 1.6 -11.2322
345 3 38.4 32 0 -11.2248
314 2 40 30.4 1.6 -9.78989
347 3 41.6 32 0 -11.2024
316 1 43.2 30.4 1.6 -11.6303
349 3 44.8 32 0 -11.1264
318 1 46.4 30.4 1.6 -11.62
351 1 48 32 0 -11.5751
320 3 49.6 30.4 1.6 -11.2767
322 3 1.6 33.6 1.6 -11.2417
353 1 0 35.2 0 -11.8121
324 3 4.8 33.6 1.6 -11.2423
355 1 3.2 35.2 0 -11.744
326 3 8 33.6 1.6 -11.2438
357 1 6.4 35.2 0 -11.6989
328 3 11.2 33.6 1.6 -11.1228
359 1 9.6 35.2 0 -11.676
330 3 14.4 33.6 1.6 -11.2259
361 2 12.8 35.2 0 -9.76963
332 1 17.6 33.6 1.6 -11.7369
363 3 16 35.2 0 -11.2305
334 1 20.8 33.6 1.6 -11.8414
365 3 19.2 35.2 0 -11.2426
336 1 24 33.6 1.6 -11.6509
367 3 22.4 35.2 0 -11.1235
369 1 25.6 35.2 0 -11.4916
338 2 27.2 33.6 1.6 -9.72323
371 3 28.8 35.2 0 -11.1054
340 2 30.4 33.6 1.6 -9.80772
373 3 32 35.2 0 -11.2304
342 3 33.6 33.6 1.6 -11.1685
375 3 35.2 35.2 0 -11.1986
344 2 36.8 33.6 1.6 -9.71845
377 3 38.4 35.2 0 -11.2759
346 1 40 33.6 1.6 -11.6824
379 3 41.6 35.2 0 -11.2429
348 1 43.2 33.6 1.6 -11.7195
381 3 44.8 35.2 0 -11.1613
350 1 46.4 33.6 1.6 -11.6705
383 1 48 35.2 0 -11.6136
352 3 49.6 33.6 1.6 -11.2975
354 3 1.6 36.8 1.6 -11.2426
385 1 0 38.4 0 -11.7804
356 3 4.8 36.8 1.6 -11.2386
387 1 3.2 38.4 0 -11.7642
358 3 8 36.8 1.6 -11.2502
389 3 6.4 38.4 0 -11.235
360 1 11.2 36.8 1.6 -11.6163
391 3 9.6 38.4 0 -11.2601
362 1 14.4 36.8 1.6 -11.768
393 3 12.8 38.4 0 -11.2057
364 1 17.6 36.8 1.6 -11.7803
395 3 16 38.4 0 -11.2039
366 1 20.8 36.8 1.6 -11.8417
397 3 19.2 38.4 0 -11.2417
368 1 24 36.8 1.6 -11.6502
399 3 22.4 38.4 0 -11.2435
401 3 25.6 38.4 0 -11.0314
370 2 27.2 36.8 1.6 -9.62271
403 1 28.8 38.4 0 -11.5962
372 1 30.4 36.8 1.6 -11.5305
405 2 32 38.4 0 -9.66989
374 1 33.6 36.8 1.6 -11.6351
407 3 35.2 38.4 0 -11.2054
376 1 36.8 36.8 1.6 -11.7499
409 3 38.4 38.4 0 -11.2036
378 1 40 36.8 1.6 -11.8122
411 3 41.6 38.4 0 -11.2426
380 1 43.2 36.8 1.6 -11.8122
413 3 44.8 38.4 0 -11.1911
382 1 46.4 36.8 1.6 -11.69
415 1 48 38.4 0 -11.6586
384 3 49.6 36.8 1.6 -11.2611
386 3 1.6 40 1.6 -11.2426
417 1 0 41.6 0 -11.8206
388 3 4.8 40 1.6 -11.2673
419 1 3.2 41.6 0 -11.7421
390 2 8 40 1.6 -9.88727
421 2 6.4 41.6 0 -9.85438
392 1 11.2 40 1.6 -11.7486
423 3 9.6 41.6 0 -11.2337
394 1 14.4 40 1.6 -11.842
425 3 12.8 41.6 0 -11.2423
396 1 17.6 40 1.6 -11.8122
427 3 16 41.6 0 -11.2417
398 1 20.8 40 1.6 -11.8415
429 3 19.2 41.6 0 -11.2414
400 1 24 40 1.6 -11.7089
431 3 22.4 41.6 0 -11.1241
433 1 25.6 41.6 0 -11.5294
402 3 27.2 40 1.6 -11.1889
435 2 28.8 41.6 0 -9.70424
404 3 30.4 40 1.6 -11.1402
437 3 32 41.6 0 -11.2246
406 1 33.6 40 1.6 -11.6741
439 3 35.2 41.6 0 -11.2438
408 1 36.8 40 1.6 -11.8414
441 3 38.4 41.6 0 -11.2417
410 1 40 40 1.6 -11.8412
443 3 41.6 41.6 0 -11.2024
412 1 43.2 40 1.6 -11.6769
445 1 44.8 41.6 0 -11.6017
414 1 46.4 40 1.6 -11.5356
447 1 48 41.6 0 -11.6914
416 3 49.6 40 1.6 -11.1608
418 3 1.6 43.2 1.6 -11.2403
449 3 0 44.8 0 -11.2697
420 3 4.8 43.2 1.6 -11.155
451 1 3.2 44.8 0 -11.6064
422 2 8 43.2 1.6 -9.81397
453 3 6.4 44.8 0 -11.1536
424 1 11.2 43.2 1.6 -11.781
455 3 9.6 44.8 0 -11.2721
426 1 14.4 43.2 1.6 -11.8415
457 3 12.8 44.8 0 -11.2417
428 1 17.6 43.2 1.6 -11.8417
459 3 16 44.8 0 -11.2417
430 1 20.8 43.2 1.6 -11.744
461 3 19.2 44.8 0 -11.2051
432 1 24 43.2 1.6 -11.6125
463 3 22.4 44.8 0 -11.1274
465 3 25.6 44.8 0 -11.1698
434 2 27.2 43.2 1.6 -9.74081
467 1 28.8 44.8 0 -11.7043
436 3 30.4 43.2 1.6 -11.2245
469 2 32 44.8 0 -9.81513
438 1 33.6 43.2 1.6 -11.5689
471 3 35.2 44.8 0 -11.0813
440 1 36.8 43.2 1.6 -11.7961
473 3 38.4 44.8 0 -11.2432
442 1 40 43.2 1.6 -11.8302
475 3 41.6 44.8 0 -11.2024
444 2 43.2 43.2 1.6 -9.72766
477 3 44.8 44.8 0 -11.2606
446 2 46.4 43.2 1.6 -9.79772
479 3 48 44.8 0 -11.4393
448 3 49.6 43.2 1.6 -11.3523
450 1 1.6 46.4 1.6 -11.6557
481 3 0 48 0 -11.206
452 1 4.8 46.4 1.6 -11.6569
483 3 3.2 48 0 -11.1235
454 1 8 46.4 1.6 -11.7495
485 3 6.4 48 0 -11.2051
456 1 11.2 46.4 1.6 -11.8122
487 2 9.6 48 0 -9.735
458 1 14.4 46.4 1.6 -11.8417
489 3 12.8 48 0 -11.2042
460 1 17.6 46.4 1.6 -11.8124
491 3 16 48 0 -11.0798
462 1 20.8 46.4 1.6 -11.6575
493 2 19.2 48 0 -9.6471
464 3 24 46.4 1.6 -11.1867
495 1 22.4 48 0 -11.5629
497 1 25.6 48 0 -11.7952
466 3 27.2 46.4 1.6 -11.3086
499 1 28.8 48 0 -11.7376
468 3 30.4 46.4 1.6 -11.3242
501 3 32 48 0 -11.2544
470 1 33.6 46.4 1.6 -11.538
503 3 35.2 48 0 -11.125
472 1 36.8 46.4 1.6 -11.6997
505 3 38.4 48 0 -11.2426
474 1 40 46.4 1.6 -11.7484
507 3 41.6 48 0 -11.2042
476 1 43.2 46.4 1.6 -11.7182
509 3 44.8 48 0 -11.2435
478 1 46.4 46.4 1.6 -11.7921
511 3 48 48 0 -11.1651
480 1 49.6 46.4 1.6 -11.7682
482 1 1.6 49.6 1.6 -11.8122
484 1 4.8 49.6 1.6 -11.8415
486 1 8 49.6 1.6 -11.8124
488 1 11.2 49.6 1.6 -11.8124
490 1 14.4 49.6 1.6 -11.7451
492 1 17.6 49.6 1.6 -11.7203
494 1 20.8 49.6 1.6 -11.6408
496 3 24 49.6 1.6 -11.3014
498 3 27.2 49.6 1.6 -11.1645
500 2 30.4 49.6 1.6 -9.84955
502 1 33.6 49.6 1.6 -11.7706
504 1 36.8 49.6 1.6 -11.7437
506 1 40 49.6 1.6 -11.8122
508 1 43.2 49.6 1.6 -11.7842
510 1 46.4 49.6 1.6 -11.6409
512 1 49.6 49.6 1.6 -11.6421
513 2 0 0 3.2 -9.64698
514 1 1.6 1.6 4.8 -11.8124
515 3 3.2 0 3.2 -11.2033
516 1 4.8 1.6 4.8 -11.8417
517 3 6.4 0 3.2 -11.2414
518 1 8 1.6 4.8 -11.8417
519 3 9.6 0 3.2 -11.242
520 1 11.2 1.6 4.8 -11.8417
521 3 12.8 0 3.2 -11.2423
522 1 14.4 1.6 4.8 -11.8417
523 3 16 0 3.2 -11.1226
524 1 17.6 1.6 4.8 -11.8417
525 3 19.2 0 3.2 -11.2438
526 1 20.8 1.6 4.8 -11.8774
527 3 22.4 0 3.2 -11.3594
528 3 24 1.6 4.8 -11.4514
529 1 25.6 0 3.2 -11.8469
530 3 27.2 1.6 4.8 -11.0362
531 1 28.8 0 3.2 -11.7896
532 2 30.4 1.6 4.8 -9.81538
533 2 32 0 3.2 -9.88413
534 1 33.6 1.6 4.8 -11.6625
535 3 35.2 0 3.2 -11.0816
536 1 36.8 1.6 4.8 -11.691
537 3 38.4 0 3.2 -11.2091
538 1 40 1.6 4.8 -11.5961
539 3 41.6 0 3.2 -10.9936
540 1 43.2 1.6 4.8 -11.5402
541 2 44.8 0 3.2 -9.67087
542 3 46.4 1.6 4.8 -11.0062
543 1 48 0 3.2 -11.3513
544 1 49.6 1.6 4.8 -11.6426
545 3 0 3.2 3.2 -11.1645
546 1 1.6 4.8 4.8 -11.8414
547 3 3.2 3.2 3.2 -11.2417
548 1 4.8 4.8 4.8 -11.8417
549 3 6.4 3.2 3.2 -11.2414
550 1 8 4.8 4.8 -11.8417
551 3 9.6 3.2 3.2 -11.2414
552 1 11.2 4.8 4.8 -11.8417
553 3 12.8 3.2 3.2 -11.2417
554 1 14.4 4.8 4.8 -11.8417
555 3 16 3.2 3.2 -11.2045
556 1 17.6 4.8 4.8 -11.8417
557 3 19.2 3.2 3.2 -11.2432
558 1 20.8 4.8 4.8 -11.8271
559 3 22.4 3.2 3.2 -11.3591
560 3 24 4.8 4.8 -11.4054
561 1 25.6 3.2 3.2 -11.8778
562 3 27.2 4.8 4.8 -11.2068
563 1 28.8 3.2 3.2 -11.8116
564 3 30.4 4.8 4.8 -11.1453
565 1 32 3.2 3.2 -11.6458
566 1 33.6 4.8 4.8 -11.67
567 1 35.2 3.2 3.2 -11.5191
568 3 36.8 4.8 4.8 -11.1634
569 2 38.4 3.2 3.2 -9.68023
570 3 40 4.8 4.8 -11.2358
571 2 41.6 3.2 3.2 -9.77064
572 3 43.2 4.8 4.8 -11.1916
573 3 44.8 3.2 3.2 -11.2168
574 1 46.4 4.8 4.8 -11.6792
575 2 48 3.2 3.2 -9.75677
576 1 49.6 4.8 4.8 -11.8473
577 3 0 6.4 3.2 -11.242
578 1 1.6 8 4.8 -11.8122
579 3 3.2 6.4 3.2 -11.2414
580 1 4.8 8 4.8 -11.8122
581 3 6.4 6.4 3.2 -11.2417
582 1 8 8 4.8 -11.8124
583 3 9.6 6.4 3.2 -11.2414
584 1 11.2 8 4.8 -11.8417
585 3 12.8 6.4 3.2 -11.2417
586 1 14.4 8 4.8 -11.8417
587 3 16 6.4 3.2 -11.2039
588 1 17.6 8 4.8 -11.8417
589 3 19.2 6.4 3.2 -11.1645
590 1 20.8 8 4.8 -11.692
591 2 22.4 6.4 3.2 -9.83232
592 2 24 8 4.8 -9.7348
593 1 25.6 6.4 3.2 -11.6822
594 2 27.2 8 4.8 -9.56287
595 1 28.8 6.4 3.2 -11.76
596 1 30.4 8 4.8 -11.5727
597 2 32 6.4 3.2 -9.7734
598 2 33.6 8 4.8 -9.63881
599 1 35.2 6.4 3.2 -11.7208
600 2 36.8 8 4.8 -9.67802
601 1 38.4 6.4 3.2 -11.7098
602 3 40 8 4.8 -11.0375
603 1 41.6 6.4 3.2 -11.7349
604 3 43.2 8 4.8 -11.2541
605 1 44.8 6.4 3.2 -11.6872
606 2 46.4 8 4.8 -9.76876
607 3 48 6.4 3.2 -11.1608
608 1 49.6 8 4.8 -11.8095
609 3 0 9.6 3.2 -11.1651
610 1 1.6 11.2 4.8 -11.6302
611 3 3.2 9.6 3.2 -11.2037
612 1 4.8 11.2 4.8 -11.5982
613 3 6.4 9.6 3.2 -11.1608
614 1 8 11.2 4.8 -11.6804
615 3 9.6 9.6 3.2 -11.2426
616 1 11.2 11.2 4.8 -11.8681
617 3 12.8 9.6 3.2 -11.2414
618 1 14.4 11.2 4.8 -11.8415
619 3 16 9.6 3.2 -11.2417
620 1 17.6 11.2 4.8 -11.8414
621 3 19.2 9.6 3.2 -11.2051
622 1 20.8 11.2 4.8 -11.7083
623 2 22.4 9.6 3.2 -9.67193
624 3 24 11.2 4.8 -11.1071
625 1 25.6 9.6 3.2 -11.5936
626 1 27.2 11.2 4.8 -11.6228
627 2 28.8 9.6 3.2 -9.72023
628 2 30.4 11.2 4.8 -9.71534
629 1 32 9.6 3.2 -11.6573
630 2 33.6 11.2 4.8 -9.69573
631 1 35.2 9.6 3.2 -11.5853
632 2 36.8 11.2 4.8 -9.77197
633 1 38.4 9.6 3.2 -11.5974
634 2 40 11.2 4.8 -9.80586
635 1 41.6 9.6 3.2 -11.6375
636 2 43.2 11.2 4.8 -9.77476
637 3 44.8 9.6 3.2 -11.3147
638 1 46.4 11.2 4.8 -11.7011
639 3 48 9.6 3.2 -11.2756
640 1 49.6 11.2 4.8 -11.7067
641 2 0 12.8 3.2 -9.735
642 2 1.6 14.4 4.8 -9.72923
643 1 3.2 12.8 3.2 -11.5643
644 3 4.8 14.4 4.8 -11.1075
645 1 6.4 12.8 3.2 -11.5762
646 1 8 14.4 4.8 -11.7376
647 3 9.6 12.8 3.2 -11.2692
648 2 11.2 14.4 4.8 -9.7644
649 3 12.8 12.8 3.2 -11.3078
650 1 14.4 14.4 4.8 -11.8421
651 3 16 12.8 3.2 -11.2414
652 1 17.6 14.4 4.8 -11.8413
653 3 19.2 12.8 3.2 -11.2751
654 1 20.8 14.4 4.8 -11.6123
655 2 22.4 12.8 3.2 -9.85204
656 3 24 14.4 4.8 -11.2484
657 3 25.6 12.8 3.2 -11.4064
658 3 27.2 14.4 4.8 -11.2913
659 3 28.8 12.8 3.2 -11.391
660 2 30.4 14.4 4.8 -9.80251
661 2 32 12.8 3.2 -9.84864
662 2 33.6 14.4 4.8 -9.77751
663 3 35.2 12.8 3.2 -11.252
664 2 36.8 14.4 4.8 -9.86949
665 3 38.4 12.8 3.2 -11.3481
666 2 40 14.4 4.8 -9.77445
667 3 41.6 12.8 3.2 -11.1925
668 1 43.2 14.4 4.8 -11.4598
669 3 44.8 12.8 3.2 -11.1892
670 1 46.4 14.4 4.8 -11.3542
671 3 48 12.8 3.2 -11.1594
672 2 49.6 14.4 4.8 -9.6701
673 1 0 16 3.2 -11.6652
674 3 1.6 17.6 4.8 -11.1254
675 1 3.2 16 3.2 -11.7194
676 3 4.8 17.6 4.8 -11.1988
677 1 6.4 16 3.2 -11.608
678 1 8 17.6 4.8 -11.6163
679 3 9.6 16 3.2 -11.1534
680 1 11.2 17.6 4.8 -11.7647
681 3 12.8 16 3.2 -11.2743
682 1 14.4 17.6 4.8 -11.7251
683 3 16 16 3.2 -11.2426
684 1 17.6 17.6 4.8 -11.781
685 3 19.2 16 3.2 -11.2027
686 1 20.8 17.6 4.8 -11.6485
687 1 22.4 16 3.2 -11.6282
688 2 24 17.6 4.8 -9.78892
689 1 25.6 16 3.2 -11.8463
690 3 27.2 17.6 4.8 -11.2947
691 1 28.8 16 3.2 -11.8203
692 2 30.4 17.6 4.8 -9.63193
693 1 32 16 3.2 -11.6089
694 1 33.6 17.6 4.8 -11.6454
695 3 35.2 16 3.2 -11.227
696 1 36.8 17.6 4.8 -11.7488
697 3 38.4 16 3.2 -11.2303
698 1 40 17.6 4.8 -11.7602
699 2 41.6 16 3.2 -9.71443
700 1 43.2 17.6 4.8 -11.5656
701 1 44.8 16 3.2 -11.3959
702 1 46.4 17.6 4.8 -11.2913
703 1 48 16 3.2 -11.5425
704 3 49.6 17.6 4.8 -11.0841
705 1 0 19.2 3.2 -11.7686
706 2 1.6 20.8 4.8 -9.722
707 1 3.2 19.2 3.2 -11.6805
708 3 4.8 20.8 4.8 -11.1657
709 1 6.4 19.2 3.2 -11.6356
710 3 8 20.8 4.8 -11.2388
711 3 9.6 19.2 3.2 -11.1917
712 3 11.2 20.8 4.8 -11.2893
713 3 12.8 19.2 3.2 -11.2945
714 1 14.4 20.8 4.8 -11.6712
715 3 16 19.2 3.2 -11.1247
716 1 17.6 20.8 4.8 -11.7484
717 3 19.2 19.2 3.2 -11.2071
718 1 20.8 20.8 4.8 -11.7798
719 2 22.4 19.2 3.2 -9.70066
720 1 24 20.8 4.8 -11.6965
721 1 25.6 19.2 3.2 -11.7566
722 2 27.2 20.8 4.8 -9.80078
723 1 28.8 19.2 3.2 -11.7375
724 1 30.4 20.8 4.8 -11.6611
725 1 32 19.2 3.2 -11.5928
726 1 33.6 20.8 4.8 -11.6909
727 3 35.2 19.2 3.2 -11.0418
728 1 36.8 20.8 4.8 -11.5959
729 3 38.4 19.2 3.2 -11.1255
730 1 40 20.8 4.8 -11.7444
731 3 41.6 19.2 3.2 -11.1654
732 1 43.2 20.8 4.8 -11.8376
733 2 44.8 19.2 3.2 -9.63079
734 1 46.4 20.8 4.8 -11.5315
735 1 48 19.2 3.2 -11.5955
736 3 49.6 20.8 4.8 -11.1596
737 2 0 22.4 3.2 -9.70687
738 3 1.6 24 4.8 -11.1638
739 1 3.2 22.4 3.2 -11.6906
740 3 4.8 24 4.8 -11.2432
741 1 6.4 22.4 3.2 -11.8413
742 3 8 24 4.8 -11.2033
743 1 9.6 22.4 3.2 -11.8781
744 3 11.2 24 4.8 -11.2435
745 1 12.8 22.4 3.2 -11.6745
746 3 14.4 24 4.8 -11.0778
747 3 16 22.4 3.2 -10.9466
748 1 17.6 24 4.8 -11.7231
749 3 19.2 22.4 3.2 -11.166
750 1 20.8 24 4.8 -11.8139
751 2 22.4 22.4 3.2 -9.75794
752 1 24 24 4.8 -11.7654
753 1 25.6 22.4 3.2 -11.7458
754 3 27.2 24 4.8 -11.2183
755 1 28.8 22.4 3.2 -11.7169
756 1 30.4 24 4.8 -11.6899
757 2 32 22.4 3.2 -9.70604
758 3 33.6 24 4.8 -11.1133
759 1 35.2 22.4 3.2 -11.5652
760 1 36.8 24 4.8 -11.5952
761 1 38.4 22.4 3.2 -11.4143
762 1 40 24 4.8 -11.6853
763 3 41.6 22.4 3.2 -11.1651
764 1 43.2 24 4.8 -11.8127
765 3 44.8 22.4 3.2 -11.0392
766 1 46.4 24 4.8 -11.5923
767 1 48 22.4 3.2 -11.5072
768 3 49.6 24 4.8 -11.0739
769 1 0 25.6 3.2 -11.7445
771 1 3.2 25.6 3.2 -11.7798
773 1 6.4 25.6 3.2 -11.8474
775 1 9.6 25.6 3.2 -11.8121
777 1 12.8 25.6 3.2 -11.7437
779 1 16 25.6 3.2 -11.5911
781 3 19.2 25.6 3.2 -10.986
783 2 22.4 25.6 3.2 -9.81479
785 2 25.6 25.6 3.2 -9.75396
787 1 28.8 25.6 3.2 -11.5004
789 1 32 25.6 3.2 -11.68
791 1 35.2 25.6 3.2 -11.7262
793 1 38.4 25.6 3.2 -11.6803
795 2 41.6 25.6 3.2 -9.73372
797 2 44.8 25.6 3.2 -9.76294
799 1 48 25.6 3.2 -11.6148
770 3 1.6 27.2 4.8 -11.2423
801 1 0 28.8 3.2 -11.8408
772 3 4.8 27.2 4.8 -11.2033
803 1 3.2 28.8 3.2 -11.8415
774 2 8 27.2 4.8 -9.735
805 1 6.4 28.8 3.2 -11.8121
776 3 11.2 27.2 4.8 -11.2033
807 1 9.6 28.8 3.2 -11.8124
778 3 14.4 27.2 4.8 -11.2393
809 1 12.8 28.8 3.2 -11.8784
780 1 17.6 27.2 4.8 -11.6726
811 3 16 28.8 3.2 -11.281
782 1 20.8 27.2 4.8 -11.7834
813 2 19.2 28.8 3.2 -9.89685
784 1 24 27.2 4.8 -11.7875
815 3 22.4 28.8 3.2 -11.1998
817 2 25.6 28.8 3.2 -9.72939
786 1 27.2 27.2 4.8 -11.6149
819 1 28.8 28.8 3.2 -11.3925
788 1 30.4 27.2 4.8 -11.5488
821 2 32 28.8 3.2 -9.73369
790 1 33.6 27.2 4.8 -11.6959
823 1 35.2 28.8 3.2 -11.7429
792 3 36.8 27.2 4.8 -11.2437
825 1 38.4 28.8 3.2 -11.8116
794 2 40 27.2 4.8 -9.86103
827 1 41.6 28.8 3.2 -11.6142
796 2 43.2 27.2 4.8 -9.76561
829 1 44.8 28.8 3.2 -11.5219
798 3 46.4 27.2 4.8 -11.1072
831 1 48 28.8 3.2 -11.7013
800 3 49.6 27.2 4.8 -11.2447
802 3 1.6 30.4 4.8 -11.242
833 1 0 32 3.2 -11.8542
804 3 4.8 30.4 4.8 -11.2417
835 1 3.2 32 3.2 -11.8417
806 3 8 30.4 4.8 -11.2036
837 1 6.4 32 3.2 -11.8417
808 3 11.2 30.4 4.8 -11.2036
839 1 9.6 32 3.2 -11.8124
810 3 14.4 30.4 4.8 -11.3399
841 1 12.8 32 3.2 -11.8116
812 3 17.6 30.4 4.8 -11.2838
843 1 16 32 3.2 -11.768
814 1 20.8 30.4 4.8 -11.7767
845 3 19.2 32 3.2 -11.184
816 1 24 30.4 4.8 -11.812
847 3 22.4 32 3.2 -11.2441
849 3 25.6 32 3.2 -11.0749
818 1 27.2 30.4 4.8 -11.6509
851 1 28.8 32 3.2 -11.5346
820 1 30.4 30.4 4.8 -11.6193
853 2 32 32 3.2 -9.71974
822 1 33.6 30.4 4.8 -11.6809
855 1 35.2 32 3.2 -11.5922
824 3 36.8 30.4 4.8 -11.1872
857 1 38.4 32 3.2 -11.5693
826 3 40 30.4 4.8 -11.0816
859 1 41.6 32 3.2 -11.5319
828 2 43.2 30.4 4.8 -9.65977
861 3 44.8 32 3.2 -11.0427
830 1 46.4 30.4 4.8 -11.5232
863 3 48 32 3.2 -11.1632
832 3 49.6 30.4 4.8 -11.1605
834 3 1.6 33.6 4.8 -11.2033
865 1 0 35.2 3.2 -11.8539
836 3 4.8 33.6 4.8 -11.2414
867 1 3.2 35.2 3.2 -11.8417
838 3 8 33.6 4.8 -11.2042
869 1 6.4 35.2 3.2 -11.8412
840 2 11.2 33.6 4.8 -9.6466
871 1 9.6 35.2 3.2 -11.6448
842 3 14.4 33.6 4.8 -11.2645
873 1 12.8 35.2 3.2 -11.6478
844 1 17.6 33.6 4.8 -11.6451
875 2 16 35.2 3.2 -9.81101
846 1 20.8 33.6 4.8 -11.7446
877 3 19.2 35.2 3.2 -11.2054
848 1 24 33.6 4.8 -11.6291
879 3 22.4 35.2 3.2 -11.1244
881 1 25.6 35.2 3.2 -11.3344
850 1 27.2 33.6 4.8 -11.475
883 1 28.8 35.2 3.2 -11.4051
852 1 30.4 33.6 4.8 -11.6199
885 2 32 35.2 3.2 -9.59143
854 1 33.6 33.6 4.8 -11.6133
887 1 35.2 35.2 3.2 -11.4998
856 1 36.8 33.6 4.8 -11.495
889 2 38.4 35.2 3.2 -9.63023
858 1 40 33.6 4.8 -11.5508
891 3 41.6 35.2 3.2 -11.0376
860 1 43.2 33.6 4.8 -11.7236
893 2 44.8 35.2 3.2 -9.73605
862 1 46.4 33.6 4.8 -11.6492
895 3 48 35.2 3.2 -11.1945
864 2 49.6 33.6 4.8 -9.83542
866 3 1.6 36.8 4.8 -11.2417
897 1 0 38.4 3.2 -11.8678
868 3 4.8 36.8 4.8 -11.2414
899 1 3.2 38.4 3.2 -11.8414
870 3 8 36.8 4.8 -11.2027
901 1 6.4 38.4 3.2 -11.8823
872 1 11.2 36.8 4.8 -11.4605
903 2 9.6 38.4 3.2 -9.70986
874 3 14.4 36.8 4.8 -11.168
905 3 12.8 38.4 3.2 -11.1103
876 1 17.6 36.8 4.8 -11.777
907 2 16 38.4 3.2 -9.78467
878 1 20.8 36.8 4.8 -11.8411
909 3 19.2 38.4 3.2 -11.2045
880 1 24 36.8 4.8 -11.5641
911 3 22.4 38.4 3.2 -11.2759
913 2 25.6 38.4 3.2 -9.69133
882 1 27.2 36.8 4.8 -11.4376
915 1 28.8 38.4 3.2 -11.5794
884 1 30.4 36.8 4.8 -11.5488
917 1 32 38.4 3.2 -11.4698
886 1 33.6 36.8 4.8 -11.6177
919 3 35.2 38.4 3.2 -10.9914
888 1 36.8 36.8 4.8 -11.7093
921 3 38.4 38.4 3.2 -11.2045
890 1 40 36.8 4.8 -11.8124
923 3 41.6 38.4 3.2 -11.2438
892 1 43.2 36.8 4.8 -11.8122
925 3 44.8 38.4 3.2 -11.1263
894 1 46.4 36.8 4.8 -11.6823
927 2 48 38.4 3.2 -9.78401
896 3 49.6 36.8 4.8 -11.2646
898 3 1.6 40 4.8 -11.2414
929 1 0 41.6 3.2 -11.8408
900 3 4.8 40 4.8 -11.242
931 1 3.2 41.6 3.2 -11.8415
902 3 8 40 4.8 -11.2024
933 1 6.4 41.6 3.2 -11.7807
904 1 11.2 40 4.8 -11.5941
935 1 9.6 41.6 3.2 -11.6307
906 2 14.4 40 4.8 -9.76786
937 3 12.8 41.6 3.2 -11.155
908 1 17.6 40 4.8 -11.716
939 3 16 41.6 3.2 -11.1636
910 1 20.8 40 4.8 -11.8414
941 3 19.2 41.6 3.2 -11.2438
912 2 24 40 4.8 -9.82008
943 3 22.4 41.6 3.2 -11.1536
945 1 25.6 41.6 3.2 -11.6725
914 3 27.2 40 4.8 -11.252
947 1 28.8 41.6 3.2 -11.8787
916 3 30.4 40 4.8 -11.2676
949 1 32 41.6 3.2 -11.6049
918 1 33.6 40 4.8 -11.6431
951 3 35.2 41.6 3.2 -11.0718
920 1 36.8 40 4.8 -11.8278
953 3 38.4 41.6 3.2 -11.3882
922 1 40 40 4.8 -11.7662
955 3 41.6 41.6 3.2 -11.185
924 1 43.2 40 4.8 -11.6566
957 1 44.8 41.6 3.2 -11.579
926 2 46.4 40 4.8 -9.63871
959 1 48 41.6 3.2 -11.7526
928 3 49.6 40 4.8 -11.2756
930 3 1.6 43.2 4.8 -11.2063
961 1 0 44.8 3.2 -11.6966
932 3 4.8 43.2 4.8 -11.2748
963 1 3.2 44.8 3.2 -11.642
934 2 8 43.2 4.8 -9.82817
965 1 6.4 44.8 3.2 -11.6984
936 1 11.2 43.2 4.8 -11.6876
967 3 9.6 44.8 3.2 -11.1618
938 1 14.4 43.2 4.8 -11.7312
969 3 12.8 44.8 3.2 -11.2048
940 1 17.6 43.2 4.8 -11.7083
971 3 16 44.8 3.2 -11.2045
942 1 20.8 43.2 4.8 -11.7764
973 3 19.2 44.8 3.2 -11.1232
944 3 24 43.2 4.8 -11.2547
975 1 22.4 44.8 3.2 -11.6424
977 1 25.6 44.8 3.2 -11.7659
946 3 27.2 43.2 4.8 -11.2015
979 1 28.8 44.8 3.2 -11.8104
948 3 30.4 43.2 4.8 -11.2961
981 1 32 44.8 3.2 -11.5617
950 1 33.6 43.2 4.8 -11.5396
983 1 35.2 44.8 3.2 -11.3966
952 3 36.8 43.2 4.8 -11.3246
985 3 38.4 44.8 3.2 -11.2722
954 3 40 43.2 4.8 -11.3446
987 1 41.6 44.8 3.2 -11.7019
956 3 43.2 43.2 4.8 -11.2052
989 1 44.8 44.8 3.2 -11.7314
958 3 46.4 43.2 4.8 -11.2371
991 3 48 44.8 3.2 -11.1864
960 3 49.6 43.2 4.8 -11.2386
962 2 1.6 46.4 4.8 -9.69808
993 3 0 48 3.2 -11.1221
964 2 4.8 46.4 4.8 -9.78014
995 3 3.2 48 3.2 -11.2702
966 1 8 46.4 4.8 -11.784
997 3 6.4 48 3.2 -11.2019
968 1 11.2 46.4 4.8 -11.7841
999 3 9.6 48 3.2 -11.1658
970 1 14.4 46.4 4.8 -11.8144
1001 3 12.8 48 3.2 -11.2423
972 1 17.6 46.4 4.8 -11.8122
1003 3 16 48 3.2 -11.2429
974 1 20.8 46.4 4.8 -11.7656
1005 3 19.2 48 3.2 -11.1654
976 3 24 46.4 4.8 -11.3879
1007 2 22.4 48 3.2 -9.80055
1009 1 25.6 48 3.2 -11.8368
978 3 27.2 46.4 4.8 -11.2048
1011 1 28.8 48 3.2 -11.8243
980 3 30.4 46.4 4.8 -11.3619
1013 3 32 48 3.2 -11.2751
982 1 33.6 46.4 4.8 -11.4802
1015 1 35.2 48 3.2 -11.5301
984 3 36.8 46.4 4.8 -11.0512
1017 3 38.4 48 3.2 -11.1529
986 2 40 46.4 4.8 -9.78173
1019 2 41.6 48 3.2 -9.73611
988 3 43.2 46.4 4.8 -11.1857
1021 3 44.8 48 3.2 -11.1519
990 2 46.4 46.4 4.8 -9.78948
1023 2 48 48 3.2 -9.62242
992 1 49.6 46.4 4.8 -11.632
994 1 1.6 49.6 4.8 -11.8377
996 1 4.8 49.6 4.8 -11.8679
998 1 8 49.6 4.8 -11.8122
1000 1 11.2 49.6 4.8 -11.8124
1002 1 14.4 49.6 4.8 -11.8415
1004 1 17.6 49.6 4.8 -11.8417
1006 1 20.8 49.6 4.8 -11.8534
1008 3 24 49.6 4.8 -11.3323
1010 2 27.2 49.6 4.8 -9.73615
1012 3 30.4 49.6 4.8 -11.3227
1014 3 33.6 49.6 4.8 -11.1906
1016 1 36.8 49.6 4.8 -11.7164
1018 1 40 49.6 4.8 -11.6052
1020 1 43.2 49.6 4.8 -11.4729
1022 1 46.4 49.6 4.8 -11.5273
1024 1 49.6 49.6 4.8 -11.4476
1025 3 0 0 6.4 -11.0816
1026 1 1.6 1.6 8 -11.8121
1027 3 3.2 0 6.4 -11.2417
1028 1 4.8 1.6 8 -11.8417
1029 3 6.4 0 6.4 -11.2417
1030 1 8 1.6 8 -11.8417
1031 3 9.6 0 6.4 -11.2036
1032 1 11.2 1.6 8 -11.8417
1033 3 12.8 0 6.4 -11.242
1034 1 14.4 1.6 8 -11.8417
1035 3 16 0 6.4 -11.2414
1036 1 17.6 1.6 8 -11.8417
1037 3 19.2 0 6.4 -11.2414
1038 1 20.8 1.6 8 -11.8416
1039 3 22.4 0 6.4 -11.3868
1040 2 24 1.6 8 -9.75209
1041 1 25.6 0 6.4 -11.6959
1042 1 27.2 1.6 8 -11.4223
1043 1 28.8 0 6.4 -11.6041
1044 1 30.4 1.6 8 -11.5262
1045 3 32 0 6.4 -11.3165
1046 1 33.6 1.6 8 -11.8533
1047 3 35.2 0 6.4 -11.3142
1048 1 36.8 1.6 8 -11.7121
1049 3 38.4 0 6.4 -11.0661
1050 2 40 1.6 8 -9.66761
1051 1 41.6 0 6.4 -11.3608
1052 2 43.2 1.6 8 -9.50541
1053 1 44.8 0 6.4 -11.5035
1054 3 46.4 1.6 8 -11.2015
1055 1 48 0 6.4 -11.51
1056 1 49.6 1.6 8 -11.7404
1057 3 0 3.2 6.4 -11.3076
1058 1 1.6 4.8 8 -11.8545
1059 3 3.2 3.2 6.4 -11.2417
1060 1 4.8 4.8 8 -11.8415
1061 3 6.4 3.2 6.4 -11.2414
1062 1 8 4.8 8 -11.8417
1063 3 9.6 3.2 6.4 -11.2414
1064 1 11.2 4.8 8 -11.8417
1065 3 12.8 3.2 6.4 -11.2414
1066 1 14.4 4.8 8 -11.8417
1067 3 16 3.2 6.4 -11.2414
1068 1 17.6 4.8 8 -11.8417
1069 3 19.2 3.2 6.4 -11.242
1070 1 20.8 4.8 8 -11.7377
1071 3 22.4 3.2 6.4 -11.3985
1072 3 24 4.8 8 -11.3286
1073 1 25.6 3.2 6.4 -11.7449
1074 3 27.2 4.8 8 -10.9928
1075 1 28.8 3.2 6.4 -11.5692
1076 1 30.4 4.8 8 -11.5977
1077 3 32 3.2 6.4 -11.2924
1078 3 33.6 4.8 8 -11.2714
1079 3 35.2 3.2 6.4 -11.1733
1080 3 36.8 4.8 8 -11.1876
1081 1 38.4 3.2 6.4 -11.6808
1082 3 40 4.8 8 -11.2071
1083 1 41.6 3.2 6.4 -11.6083
1084 3 43.2 4.8 8 -11.042
1085 1 44.8 3.2 6.4 -11.6334
1086 1 46.4 4.8 8 -11.5615
1087 3 48 3.2 6.4 -11.1827
1088 3 49.6 4.8 8 -11.1722
1089 3 0 6.4 6.4 -11.3027
1090 1 1.6 8 8 -11.6485
1091 3 3.2 6.4 6.4 -11.2429
1092 1 4.8 8 8 -11.755
1093 3 6.4 6.4 6.4 -11.2033
1094 1 8 8 8 -11.8122
1095 3 9.6 6.4 6.4 -11.2417
1096 1 11.2 8 8 -11.8417
1097 3 12.8 6.4 6.4 -11.2414
1098 1 14.4 8 8 -11.8417
1099 3 16 6.4 6.4 -11.2414
1100 1 17.6 8 8 -11.8414
1101 3 19.2 6.4 6.4 -11.2054
1102 1 20.8 8 8 -11.6406
1103 2 22.4 6.4 6.4 -9.75898