ITEM: TIMESTEP
0
ITEM: NUMBER OF ATOMS
8192
ITEM: BOX BOUNDS pp pp pp
0.0000000000000000e+00 5.1200000000000003e+01
0.0000000000000000e+00 5.1200000000000003e+01
0.0000000000000000e+00 5.1200000000000003e+01
ITEM: ATOMS id type x y z c_eng
1 3 0 0 0 -11.3839
2 3 1.6 1.6 1.6 -11.4002
3 2 3.2 0 0 -9.93368
4 3 4.8 1.6 1.6 -11.454
5 2 6.4 0 0 -9.97024
6 1 8 1.6 1.6 -11.8621
7 3 9.6 0 0 -11.4396
8 2 11.2 1.6 1.6 -9.89043
9 1 12.8 0 0 -11.8953
10 3 14.4 1.6 1.6 -11.4711
11 2 16 0 0 -9.93955
12 1 17.6 1.6 1.6 -11.8522
13 3 19.2 0 0 -11.473
14 2 20.8 1.6 1.6 -9.91236
15 2 22.4 0 0 -9.98923
16 1 24 1.6 1.6 -11.899
17 2 25.6 0 0 -10.0115
18 3 27.2 1.6 1.6 -11.3552
19 3 28.8 0 0 -11.4547
20 2 30.4 1.6 1.6 -9.99862
21 3 32 0 0 -11.4647
22 3 33.6 1.6 1.6 -11.3894
23 2 35.2 0 0 -10.0256
24 1 36.8 1.6 1.6 -11.8722
25 3 38.4 0 0 -11.3994
26 1 40 1.6 1.6 -11.8294
27 2 41.6 0 0 -9.96331
28 2 43.2 1.6 1.6 -9.9428
29 3 44.8 0 0 -11.4403
30 2 46.4 1.6 1.6 -9.97844
31 2 48 0 0 -9.94069
32 3 49.6 1.6 1.6 -11.3635
33 1 0 3.2 0 -11.8559
34 2 1.6 4.8 1.6 -9.96873
35 1 3.2 3.2 0 -11.8192
36 3 4.8 4.8 1.6 -11.4567
37 2 6.4 3.2 0 -9.90633
38 2 8 4.8 1.6 -9.93482
39 2 9.6 3.2 0 -9.94301
40 2 11.2 4.8 1.6 -9.93591
41 1 12.8 3.2 0 -11.8511
42 2 14.4 4.8 1.6 -9.97754
43 2 16 3.2 0 -9.85058
44 1 17.6 4.8 1.6 -11.8498
45 3 19.2 3.2 0 -11.3488
46 3 20.8 4.8 1.6 -11.4003
47 2 22.4 3.2 0 -10.0283
48 1 24 4.8 1.6 -11.8933
49 3 25.6 3.2 0 -11.4089
50 1 27.2 4.8 1.6 -11.8197
51 3 28.8 3.2 0 -11.4447
52 2 30.4 4.8 1.6 -9.85874
53 1 32 3.2 0 -11.9245
54 2 33.6 4.8 1.6 -9.92294
55 3 35.2 3.2 0 -11.4963
56 1 36.8 4.8 1.6 -11.8828
57 3 38.4 3.2 0 -11.4325
58 1 40 4.8 1.6 -11.8774
59 3 41.6 3.2 0 -11.4637
60 3 43.2 4.8 1.6 -11.4061
61 3 44.8 3.2 0 -11.5756
62 3 46.4 4.8 1.6 -11.4817
63 2 48 3.2 0 -9.95721
64 3 49.6 4.8 1.6 -11.3848
65 2 0 6.4 0 -9.82412
66 3 1.6 8 1.6 -11.3822
67 1 3.2 6.4 0 -11.8344
68 2 4.8 8 1.6 -9.92228
69 1 6.4 6.4 0 -11.8213
70 2 8 8 1.6 -9.85935
71 2 9.6 6.4 0 -9.91702
72 2 11.2 8 1.6 -9.92728
73 3 12.8 6.4 0 -11.4665
74 2 14.4 8 1.6 -9.98404
75 2 16 6.4 0 -9.94623
76 2 17.6 8 1.6 -9.9384
77 3 19.2 6.4 0 -11.4237
78 3 20.8 8 1.6 -11.5017
79 3 22.4 6.4 0 -11.496
80 2 24 8 1.6 -9.93396
81 2 25.6 6.4 0 -9.94319
82 1 27.2 8 1.6 -11.8475
83 2 28.8 6.4 0 -9.87218
84 2 30.4 8 1.6 -9.91723
85 1 32 6.4 0 -11.8462
86 3 33.6 8 1.6 -11.477
87 3 35.2 6.4 0 -11.5443
88 3 36.8 8 1.6 -11.4613
89 3 38.4 6.4 0 -11.4955
90 1 40 8 1.6 -11.9183
91 3 41.6 6.4 0 -11.5418
92 2 43.2 8 1.6 -9.93778
93 2 44.8 6.4 0 -9.96577
94 3 46.4 8 1.6 -11.4334
95 2 48 6.4 0 -9.9592
96 3 49.6 8 1.6 -11.4357
97 1 0 9.6 0 -11.8774
98 3 1.6 11.2 1.6 -11.4622
99 2 3.2 9.6 0 -9.89569
100 2 4.8 11.2 1.6 -9.90024
101 1 6.4 9.6 0 -11.7547
102 2 8 11.2 1.6 -9.85735
103 1 9.6 9.6 0 -11.8149
104 2 11.2 11.2 1.6 -9.88679
105 3 12.8 9.6 0 -11.4318
106 2 14.4 11.2 1.6 -9.97511
107 2 16 9.6 0 -9.97989
108 2 17.6 11.2 1.6 -9.93225
109 2 19.2 9.6 0 -9.95597
110 2 20.8 11.2 1.6 -9.94257
111 2 22.4 9.6 0 -9.87916
112 2 24 11.2 1.6 -9.89319
113 3 25.6 9.6 0 -11.5201
114 2 27.2 11.2 1.6 -9.93007
115 3 28.8 9.6 0 -11.5108
116 2 30.4 11.2 1.6 -9.91237
117 2 32 9.6 0 -9.95842
118 1 33.6 11.2 1.6 -11.8451
119 3 35.2 9.6 0 -11.4075
120 1 36.8 11.2 1.6 -11.846
121 2 38.4 9.6 0 -10.0073
122 2 40 11.2 1.6 -9.93447
123 3 41.6 9.6 0 -11.487
124 2 43.2 11.2 1.6 -9.92616
125 1 44.8 9.6 0 -11.8555
126 3 46.4 11.2 1.6 -11.524
127 2 48 9.6 0 -9.89648
128 3 49.6 11.2 1.6 -11.5115
129 2 0 12.8 0 -9.94844
130 1 1.6 14.4 1.6 -11.8877
131 3 3.2 12.8 0 -11.4676
132 1 4.8 14.4 1.6 -11.9111
133 2 6.4 12.8 0 -9.91216
134 2 8 14.4 1.6 -9.82027
135 2 9.6 12.8 0 -9.88982
136 1 11.2 14.4 1.6 -11.8004
137 3 12.8 12.8 0 -11.4794
138 1 14.4 14.4 1.6 -11.8112
139 3 16 12.8 0 -11.3884
140 1 17.6 14.4 1.6 -11.8228
141 2 19.2 12.8 0 -9.93373
142 2 20.8 14.4 1.6 -9.85365
143 2 22.4 12.8 0 -9.8468
144 1 24 14.4 1.6 -11.8606
145 3 25.6 12.8 0 -11.4603
146 1 27.2 14.4 1.6 -11.8377
147 3 28.8 12.8 0 -11.4736
148 2 30.4 14.4 1.6 -9.894
149 3 32 12.8 0 -11.3399
150 2 33.6 14.4 1.6 -9.90186
151 2 35.2 12.8 0 -9.83833
152 2 36.8 14.4 1.6 -9.80406
153 2 38.4 12.8 0 -9.89476
154 3 40 14.4 1.6 -11.3795
155 2 41.6 12.8 0 -9.93722
156 2 43.2 14.4 1.6 -9.94987
157 1 44.8 12.8 0 -11.8427
158 3 46.4 14.4 1.6 -11.388
159 2 48 12.8 0 -9.93486
160 2 49.6 14.4 1.6 -9.97969
161 2 0 16 0 -9.90268
162 2 1.6 17.6 1.6 -9.87648
163 3 3.2 16 0 -11.4303
164 3 4.8 17.6 1.6 -11.3206
165 3 6.4 16 0 -11.382
166 2 8 17.6 1.6 -9.93513
167 2 9.6 16 0 -9.82677
168 2 11.2 17.6 1.6 -9.85683
169 2 12.8 16 0 -9.84648
170 2 14.4 17.6 1.6 -9.91408
171 3 16 16 0 -11.3706
172 3 17.6 17.6 1.6 -11.4748
173 3 19.2 16 0 -11.3807
174 2 20.8 17.6 1.6 -9.96368
175 2 22.4 16 0 -9.93817
176 1 24 17.6 1.6 -11.8469
177 3 25.6 16 0 -11.3156
178 1 27.2 17.6 1.6 -11.808
179 2 28.8 16 0 -9.84536
180 2 30.4 17.6 1.6 -9.8679
181 1 32 16 0 -11.8525
182 3 33.6 17.6 1.6 -11.3172
183 1 35.2 16 0 -11.7557
184 2 36.8 17.6 1.6 -9.80378
185 1 38.4 16 0 -11.8162
186 3 40 17.6 1.6 -11.4837
187 2 41.6 16 0 -9.94601
188 3 43.2 17.6 1.6 -11.4918
189 1 44.8 16 0 -11.8153
190 3 46.4 17.6 1.6 -11.4534
191 1 48 16 0 -11.8192
192 3 49.6 17.6 1.6 -11.4294
193 1 0 19.2 0 -11.8424
194 3 1.6 20.8 1.6 -11.2911
195 1 3.2 19.2 0 -11.7978
196 2 4.8 20.8 1.6 -9.8319
197 2 6.4 19.2 0 -9.89513
198 2 8 20.8 1.6 -9.92807
199 3 9.6 19.2 0 -11.451
200 1 11.2 20.8 1.6 -11.9281
201 2 12.8 19.2 0 -9.84329
202 1 14.4 20.8 1.6 -11.8004
203 2 16 19.2 0 -9.87003
204 2 17.6 20.8 1.6 -9.86986
205 2 19.2 19.2 0 -10.0272
206 2 20.8 20.8 1.6 -9.97127
207 3 22.4 19.2 0 -11.5004
208 2 24 20.8 1.6 -9.99823
209 2 25.6 19.2 0 -9.96828
210 2 27.2 20.8 1.6 -9.92267
211 1 28.8 19.2 0 -11.7847
212 2 30.4 20.8 1.6 -9.96988
213 1 32 19.2 0 -11.8424
214 3 33.6 20.8 1.6 -11.3844
215 1 35.2 19.2 0 -11.7976
216 2 36.8 20.8 1.6 -9.89606
217 2 38.4 19.2 0 -9.89219
218 2 40 20.8 1.6 -9.95553
219 2 41.6 19.2 0 -9.94385
220 3 43.2 20.8 1.6 -11.4546
221 1 44.8 19.2 0 -11.809
222 3 46.4 20.8 1.6 -11.4397
223 1 48 19.2 0 -11.8626
224 3 49.6 20.8 1.6 -11.4476
225 2 0 22.4 0 -9.92653
226 2 1.6 24 1.6 -9.92069
227 3 3.2 22.4 0 -11.4217
228 2 4.8 24 1.6 -9.88455
229 2 6.4 22.4 0 -9.90037
230 2 8 24 1.6 -9.88702
231 3 9.6 22.4 0 -11.4516
232 1 11.2 24 1.6 -11.8371
233 3 12.8 22.4 0 -11.2693
234 1 14.4 24 1.6 -11.8045
235 2 16 22.4 0 -9.79353
236 1 17.6 24 1.6 -11.8512
237 3 19.2 22.4 0 -11.4185
238 3 20.8 24 1.6 -11.4957
239 3 22.4 22.4 0 -11.5652
240 3 24 24 1.6 -11.4745
241 2 25.6 22.4 0 -9.96536
242 2 27.2 24 1.6 -9.93407
243 2 28.8 22.4 0 -9.96224
244 3 30.4 24 1.6 -11.4295
245 2 32 22.4 0 -9.93778
246 3 33.6 24 1.6 -11.4337
247 3 35.2 22.4 0 -11.3937
248 3 36.8 24 1.6 -11.4614
249 2 38.4 22.4 0 -9.9368
250 3 40 24 1.6 -11.3608
251 2 41.6 22.4 0 -9.85646
252 3 43.2 24 1.6 -11.3047
253 1 44.8 22.4 0 -11.8591
254 2 46.4 24 1.6 -9.89365
255 3 48 22.4 0 -11.3556
256 3 49.6 24 1.6 -11.3678
257 2 0 25.6 0 -9.96701
259 2 3.2 25.6 0 -9.88363
261 1 6.4 25.6 0 -11.7925
263 2 9.6 25.6 0 -9.90927
265 2 12.8 25.6 0 -9.89834
267 3 16 25.6 0 -11.357
269 3 19.2 25.6 0 -11.5043
271 3 22.4 25.6 0 -11.4565
273 2 25.6 25.6 0 -9.97767
275 2 28.8 25.6 0 -9.96545
277 2 32 25.6 0 -9.94967
279 2 35.2 25.6 0 -9.97079
281 2 38.4 25.6 0 -9.96173
283 1 41.6 25.6 0 -11.8743
285 1 44.8 25.6 0 -11.8302
287 2 48 25.6 0 -9.93398
258 2 1.6 27.2 1.6 -9.95605
289 3 0 28.8 0 -11.4273
260 3 4.8 27.2 1.6 -11.3285
291 1 3.2 28.8 0 -11.933
262 2 8 27.2 1.6 -9.92618
293 2 6.4 28.8 0 -9.87568
264 2 11.2 27.2 1.6 -9.89542
295 2 9.6 28.8 0 -9.95897
266 2 14.4 27.2 1.6 -9.90795
297 1 12.8 28.8 0 -11.7886
268 2 17.6 27.2 1.6 -9.93705
299 1 16 28.8 0 -11.8546
270 1 20.8 27.2 1.6 -11.8468
301 2 19.2 28.8 0 -9.93941
272 1 24 27.2 1.6 -11.8268
303 2 22.4 28.8 0 -9.9238
305 3 25.6 28.8 0 -11.3881
274 1 27.2 27.2 1.6 -11.7748
307 3 28.8 28.8 0 -11.4577
276 2 30.4 27.2 1.6 -9.91121
309 3 32 28.8 0 -11.5093
278 2 33.6 27.2 1.6 -9.94764
311 3 35.2 28.8 0 -11.527
280 3 36.8 27.2 1.6 -11.467
313 3 38.4 28.8 0 -11.5307
282 3 40 27.2 1.6 -11.5022
315 2 41.6 28.8 0 -9.97909
284 3 43.2 27.2 1.6 -11.3837
317 3 44.8 28.8 0 -11.3929
286 3 46.4 27.2 1.6 -11.3778
319 2 48 28.8 0 -10.0311
288 3 49.6 27.2 1.6 -11.4108
290 3 1.6 30.4 1.6 -11.4964
321 3 0 32 0 -11.5732
292 3 4.8 30.4 1.6 -11.4792
323 2 3.2 32 0 -9.92373
294 2 8 30.4 1.6 -9.98885
325 2 6.4 32 0 -9.97072
296 3 11.2 30.4 1.6 -11.4204
327 3 9.6 32 0 -11.4101
298 3 14.4 30.4 1.6 -11.3788
329 2 12.8 32 0 -9.9155
300 3 17.6 30.4 1.6 -11.4578
331 2 16 32 0 -9.94364
302 2 20.8 30.4 1.6 -9.91744
333 2 19.2 32 0 -9.94279
304 2 24 30.4 1.6 -9.89971
335 3 22.4 32 0 -11.3558
337 3 25.6 32 0 -11.3808
306 1 27.2 30.4 1.6 -11.8444
339 3 28.8 32 0 -11.4412
308 2 30.4 30.4 1.6 -9.91585
341 3 32 32 0 -11.4299
310 3 33.6 30.4 1.6 -11.3718
343 3 35.2 32 0 -11.4827
312 2 36.8 30.4 1.6 -9.98618
345 3 38.4 32 0 -11.4289
314 2 40 30.4 1.6 -9.94204
347 2 41.6 32 0 -9.95309
316 2 43.2 30.4 1.6 -9.99452
349 2 44.8 32 0 -9.94453
318 2 46.4 30.4 1.6 -9.91444
351 3 48 32 0 -11.4345
320 1 49.6 30.4 1.6 -11.9339
322 3 1.6 33.6 1.6 -11.5162
353 3 0 35.2 0 -11.4031
324 3 4.8 33.6 1.6 -11.4522
355 1 3.2 35.2 0 -11.8056
326 2 8 33.6 1.6 -9.94761
357 1 6.4 35.2 0 -11.7868
328 3 11.2 33.6 1.6 -11.4304
359 1 9.6 35.2 0 -11.7784
330 2 14.4 33.6 1.6 -10.0128
361 2 12.8 35.2 0 -9.90386
332 2 17.6 33.6 1.6 -9.94458
363 2 16 35.2 0 -9.95485
334 2 20.8 33.6 1.6 -9.92156
365 2 19.2 35.2 0 -9.846
336 2 24 33.6 1.6 -9.97675
367 1 22.4 35.2 0 -11.8112
369 2 25.6 35.2 0 -9.948
338 1 27.2 33.6 1.6 -11.8824
371 3 28.8 35.2 0 -11.399
340 2 30.4 33.6 1.6 -9.92365
373 2 32 35.2 0 -9.91376
342 2 33.6 33.6 1.6 -9.9007
375 2 35.2 35.2 0 -9.94268
344 2 36.8 33.6 1.6 -9.91988
377 2 38.4 35.2 0 -9.96714
346 1 40 33.6 1.6 -11.9136
379 2 41.6 35.2 0 -9.95359
348 2 43.2 33.6 1.6 -9.88831
381 2 44.8 35.2 0 -9.9658
350 1 46.4 33.6 1.6 -11.8608
383 3 48 35.2 0 -11.2982
352 1 49.6 33.6 1.6 -11.9009
354 3 1.6 36.8 1.6 -11.3935
385 3 0 38.4 0 -11.2987
356 3 4.8 36.8 1.6 -11.4337
387 2 3.2 38.4 0 -9.87784
358 3 8 36.8 1.6 -11.3685
389 1 6.4 38.4 0 -11.829
360 3 11.2 36.8 1.6 -11.4004
391 1 9.6 38.4 0 -11.7795
362 3 14.4 36.8 1.6 -11.4344
393 1 12.8 38.4 0 -11.7846
364 3 17.6 36.8 1.6 -11.3518
395 1 16 38.4 0 -11.8375
366 2 20.8 36.8 1.6 -9.95652
397 1 19.2 38.4 0 -11.8441
368 3 24 36.8 1.6 -11.3906
399 1 22.4 38.4 0 -11.8327
401 2 25.6 38.4 0 -9.95839
370 1 27.2 36.8 1.6 -11.8647
403 2 28.8 38.4 0 -9.94618
372 1 30.4 36.8 1.6 -11.8048
405 2 32 38.4 0 -9.90164
374 1 33.6 36.8 1.6 -11.7724
407 2 35.2 38.4 0 -9.87698
376 2 36.8 36.8 1.6 -9.9432
409 1 38.4 38.4 0 -11.8116
378 3 40 36.8 1.6 -11.418
411 1 41.6 38.4 0 -11.8943
380 3 43.2 36.8 1.6 -11.5393
413 3 44.8 38.4 0 -11.5314
382 3 46.4 36.8 1.6 -11.4465
415 2 48 38.4 0 -9.94586
384 1 49.6 36.8 1.6 -11.9143
386 1 1.6 40 1.6 -11.86
417 3 0 41.6 0 -11.4015
388 2 4.8 40 1.6 -9.95819
419 2 3.2 41.6 0 -9.94984
390 2 8 40 1.6 -9.90403
421 2 6.4 41.6 0 -9.8744
392 2 11.2 40 1.6 -9.88371
423 2 9.6 41.6 0 -9.89148
394 3 14.4 40 1.6 -11.3504
425 1 12.8 41.6 0 -11.8283
396 2 17.6 40 1.6 -9.90362
427 1 16 41.6 0 -11.8547
398 3 20.8 40 1.6 -11.3381
429 1 19.2 41.6 0 -11.8052
400 2 24 40 1.6 -10.0004
431 1 22.4 41.6 0 -11.8579
433 3 25.6 41.6 0 -11.4433
402 2 27.2 40 1.6 -9.94311
435 3 28.8 41.6 0 -11.4011
404 2 30.4 40 1.6 -9.90982
437 2 32 41.6 0 -9.90108
406 2 33.6 40 1.6 -9.88979
439 1 35.2 41.6 0 -11.8263
408 2 36.8 40 1.6 -9.83638
441 1 38.4 41.6 0 -11.7817
410 3 40 40 1.6 -11.3174
443 1 41.6 41.6 0 -11.8931
412 3 43.2 40 1.6 -11.5921
445 3 44.8 41.6 0 -11.435
414 3 46.4 40 1.6 -11.5436
447 2 48 41.6 0 -9.98471
416 1 49.6 40 1.6 -11.8836
418 2 1.6 43.2 1.6 -9.90516
449 2 0 44.8 0 -9.92027
420 2 4.8 43.2 1.6 -9.94254
451 2 3.2 44.8 0 -9.94696
422 2 8 43.2 1.6 -9.91983
453 1 6.4 44.8 0 -11.8478
424 2 11.2 43.2 1.6 -9.97521
455 2 9.6 44.8 0 -9.94749
426 3 14.4 43.2 1.6 -11.5551
457 2 12.8 44.8 0 -9.91944
428 2 17.6 43.2 1.6 -9.88695
459 2 16 44.8 0 -9.95052
430 2 20.8 43.2 1.6 -9.96456
461 3 19.2 44.8 0 -11.3475
432 2 24 43.2 1.6 -9.95624
463 2 22.4 44.8 0 -9.91239
465 3 25.6 44.8 0 -11.5148
434 1 27.2 43.2 1.6 -11.9368
467 3 28.8 44.8 0 -11.4202
436 2 30.4 43.2 1.6 -9.8664
469 3 32 44.8 0 -11.326
438 2 33.6 43.2 1.6 -9.92678
471 2 35.2 44.8 0 -9.92174
440 2 36.8 43.2 1.6 -9.94952
473 2 38.4 44.8 0 -9.89889
442 3 40 43.2 1.6 -11.4459
475 1 41.6 44.8 0 -11.8214
444 3 43.2 43.2 1.6 -11.466
477 1 44.8 44.8 0 -11.8516
446 3 46.4 43.2 1.6 -11.4304
479 1 48 44.8 0 -11.8523
448 2 49.6 43.2 1.6 -9.91357
450 2 1.6 46.4 1.6 -9.90623
481 2 0 48 0 -9.86664
452 3 4.8 46.4 1.6 -11.4122
483 2 3.2 48 0 -9.8561
454 2 8 46.4 1.6 -9.94946
485 1 6.4 48 0 -11.8498
456 2 11.2 46.4 1.6 -9.98062
487 2 9.6 48 0 -9.89655
458 3 14.4 46.4 1.6 -11.5239
489 1 12.8 48 0 -11.869
460 1 17.6 46.4 1.6 -11.8274
491 2 16 48 0 -9.93685
462 2 20.8 46.4 1.6 -9.92473
493 2 19.2 48 0 -9.94251
464 2 24 46.4 1.6 -9.9622
495 1 22.4 48 0 -11.8523
497 2 25.6 48 0 -9.90581
466 3 27.2 46.4 1.6 -11.3971
499 2 28.8 48 0 -9.87638
468 1 30.4 46.4 1.6 -11.9089
501 3 32 48 0 -11.2704
470 1 33.6 46.4 1.6 -11.7792
503 2 35.2 48 0 -9.88158
472 2 36.8 46.4 1.6 -9.91872
505 2 38.4 48 0 -9.99545
474 2 40 46.4 1.6 -9.9428
507 3 41.6 48 0 -11.3248
476 2 43.2 46.4 1.6 -9.96326
509 2 44.8 48 0 -9.95412
478 3 46.4 46.4 1.6 -11.4456
511 2 48 48 0 -9.91468
480 2 49.6 46.4 1.6 -9.8942
482 1 1.6 49.6 1.6 -11.8154
484 2 4.8 49.6 1.6 -9.95996
486 2 8 49.6 1.6 -9.90318
488 2 11.2 49.6 1.6 -9.97844
490 3 14.4 49.6 1.6 -11.5066
492 1 17.6 49.6 1.6 -11.8721
494 2 20.8 49.6 1.6 -9.97518
496 2 24 49.6 1.6 -9.93978
498 2 27.2 49.6 1.6 -9.95894
500 1 30.4 49.6 1.6 -11.874
502 1 33.6 49.6 1.6 -11.7857
504 2 36.8 49.6 1.6 -9.93211
506 3 40 49.6 1.6 -11.3555
508 1 43.2 49.6 1.6 -11.8956
510 2 46.4 49.6 1.6 -9.93634
512 1 49.6 49.6 1.6 -11.7971
513 2 0 0 3.2 -9.95043
514 1 1.6 1.6 4.8 -11.9335
515 3 3.2 0 3.2 -11.4969
516 1 4.8 1.6 4.8 -11.9415
517 3 6.4 0 3.2 -11.4099
518 1 8 1.6 4.8 -11.753
519 2 9.6 0 3.2 -9.90621
520 1 11.2 1.6 4.8 -11.8322
521 3 12.8 0 3.2 -11.5122
522 2 14.4 1.6 4.8 -9.94898
523 3 16 0 3.2 -11.5027
524 1 17.6 1.6 4.8 -11.8664
525 3 19.2 0 3.2 -11.4461
526 1 20.8 1.6 4.8 -11.9026
527 3 22.4 0 3.2 -11.5026
528 1 24 1.6 4.8 -11.9116
529 3 25.6 0 3.2 -11.4745
530 1 27.2 1.6 4.8 -11.9194
531 3 28.8 0 3.2 -11.5288
532 2 30.4 1.6 4.8 -9.94695
533 2 32 0 3.2 -9.96197
534 2 33.6 1.6 4.8 -9.96613
535 2 35.2 0 3.2 -9.88868
536 3 36.8 1.6 4.8 -11.3681
537 3 38.4 0 3.2 -11.4244
538 2 40 1.6 4.8 -9.94798
539 2 41.6 0 3.2 -9.94851
540 2 43.2 1.6 4.8 -9.96956
541 2 44.8 0 3.2 -9.95732
542 2 46.4 1.6 4.8 -9.96165
543 1 48 0 3.2 -11.7943
544 2 49.6 1.6 4.8 -9.88197
545 2 0 3.2 3.2 -9.90531
546 3 1.6 4.8 4.8 -11.5308
547 3 3.2 3.2 3.2 -11.5413
548 3 4.8 4.8 4.8 -11.5416
549 3 6.4 3.2 3.2 -11.4649
550 2 8 4.8 4.8 -9.91012
551 2 9.6 3.2 3.2 -9.8657
552 1 11.2 4.8 4.8 -11.8027
553 3 12.8 3.2 3.2 -11.4589
554 3 14.4 4.8 4.8 -11.4825
555 3 16 3.2 3.2 -11.4536
556 1 17.6 4.8 4.8 -11.8841
557 3 19.2 3.2 3.2 -11.3909
558 1 20.8 4.8 4.8 -11.9121
559 3 22.4 3.2 3.2 -11.3606
560 1 24 4.8 4.8 -11.892
561 3 25.6 3.2 3.2 -11.3726
562 2 27.2 4.8 4.8 -9.84052
563 2 28.8 3.2 3.2 -10.0083
564 2 30.4 4.8 4.8 -9.90978
565 2 32 3.2 3.2 -9.89417
566 2 33.6 4.8 4.8 -9.96249
567 2 35.2 3.2 3.2 -9.95676
568 2 36.8 4.8 4.8 -9.94899
569 2 38.4 3.2 3.2 -9.87895
570 3 40 4.8 4.8 -11.3725
571 2 41.6 3.2 3.2 -9.95671
572 2 43.2 4.8 4.8 -9.96167
573 2 44.8 3.2 3.2 -9.93517
574 3 46.4 4.8 4.8 -11.2926
575 1 48 3.2 3.2 -11.8433
576 2 49.6 4.8 4.8 -9.91558
577 1 0 6.4 3.2 -11.8699
578 2 1.6 8 4.8 -9.98071
579 3 3.2 6.4 3.2 -11.4969
580 3 4.8 8 4.8 -11.4419
581 2 6.4 6.4 3.2 -9.91829
582 3 8 8 4.8 -11.3436
583 2 9.6 6.4 3.2 -9.94287
584 1 11.2 8 4.8 -11.7897
585 3 12.8 6.4 3.2 -11.4834
586 3 14.4 8 4.8 -11.4703
587 2 16 6.4 3.2 -9.951
588 2 17.6 8 4.8 -9.93163
589 3 19.2 6.4 3.2 -11.5205
590 3 20.8 8 4.8 -11.5326
591 3 22.4 6.4 3.2 -11.4993
592 2 24 8 4.8 -9.93922
593 3 25.6 6.4 3.2 -11.3582
594 1 27.2 8 4.8 -11.7974
595 2 28.8 6.4 3.2 -9.83993
596 2 30.4 8 4.8 -9.87626
597 1 32 6.4 3.2 -11.8212
598 3 33.6 8 4.8 -11.4924
599 2 35.2 6.4 3.2 -9.98661
600 3 36.8 8 4.8 -11.4605
601 3 38.4 6.4 3.2 -11.4121
602 2 40 8 4.8 -9.99205
603 2 41.6 6.4 3.2 -9.96856
604 3 43.2 8 4.8 -11.423
605 1 44.8 6.4 3.2 -11.8696
606 3 46.4 8 4.8 -11.4077
607 1 48 6.4 3.2 -11.842
608 2 49.6 8 4.8 -9.94622
609 1 0 9.6 3.2 -11.8816
610 3 1.6 11.2 4.8 -11.5196
611 2 3.2 9.6 3.2 -9.96545
612 2 4.8 11.2 4.8 -9.91197
613 1 6.4 9.6 3.2 -11.7923
614 2 8 11.2 4.8 -9.86771
615 2 9.6 9.6 3.2 -9.83218
616 1 11.2 11.2 4.8 -11.8244
617 2 12.8 9.6 3.2 -9.98165
618 3 14.4 11.2 4.8 -11.435
619 1 16 9.6 3.2 -11.8513
620 2 17.6 11.2 4.8 -9.95993
621 2 19.2 9.6 3.2 -9.95499
622 3 20.8 11.2 4.8 -11.5064
623 1 22.4 9.6 3.2 -11.9124
624 2 24 11.2 4.8 -9.99007
625 3 25.6 9.6 3.2 -11.3565
626 2 27.2 11.2 4.8 -9.90751
627 2 28.8 9.6 3.2 -9.9471
628 2 30.4 11.2 4.8 -9.90625
629 2 32 9.6 3.2 -9.95547
630 3 33.6 11.2 4.8 -11.4537
631 3 35.2 9.6 3.2 -11.4884
632 2 36.8 11.2 4.8 -9.96114
633 3 38.4 9.6 3.2 -11.4633
634 2 40 11.2 4.8 -9.93595
635 2 41.6 9.6 3.2 -9.95568
636 2 43.2 11.2 4.8 -9.95436
637 1 44.8 9.6 3.2 -11.8744
638 3 46.4 11.2 4.8 -11.5022
639 3 48 9.6 3.2 -11.4618
640 2 49.6 11.2 4.8 -10.0324
641 2 0 12.8 3.2 -9.99428
642 2 1.6 14.4 4.8 -9.95456
643 3 3.2 12.8 3.2 -11.4866
644 2 4.8 14.4 4.8 -9.93898
645 2 6.4 12.8 3.2 -9.8796
646 2 8 14.4 4.8 -9.91401
647 2 9.6 12.8 3.2 -9.88786
648 2 11.2 14.4 4.8 -9.84327
649 3 12.8 12.8 3.2 -11.4146
650 1 14.4 14.4 4.8 -11.8503
651 2 16 12.8 3.2 -9.83043
652 1 17.6 14.4 4.8 -11.766
653 2 19.2 12.8 3.2 -9.93263
654 2 20.8 14.4 4.8 -9.93977
655 2 22.4 12.8 3.2 -9.9071
656 3 24 14.4 4.8 -11.3461
657 3 25.6 12.8 3.2 -11.4555
658 1 27.2 14.4 4.8 -11.797
659 2 28.8 12.8 3.2 -9.90333
660 1 30.4 14.4 4.8 -11.8013
661 2 32 12.8 3.2 -9.9841
662 3 33.6 14.4 4.8 -11.3753
663 2 35.2 12.8 3.2 -9.93069
664 2 36.8 14.4 4.8 -9.86351
665 3 38.4 12.8 3.2 -11.4094
666 1 40 14.4 4.8 -11.7785
667 2 41.6 12.8 3.2 -9.93909
668 1 43.2 14.4 4.8 -11.766
669 2 44.8 12.8 3.2 -9.90508
670 1 46.4 14.4 4.8 -11.8682
671 3 48 12.8 3.2 -11.5534
672 2 49.6 14.4 4.8 -9.91309
673 2 0 16 3.2 -9.95641
674 2 1.6 17.6 4.8 -9.91683
675 3 3.2 16 3.2 -11.3786
676 3 4.8 17.6 4.8 -11.4254
677 2 6.4 16 3.2 -9.92412
678 2 8 17.6 4.8 -9.94991
679 1 9.6 16 3.2 -11.78
680 2 11.2 17.6 4.8 -9.99212
681 3 12.8 16 3.2 -11.3613
682 3 14.4 17.6 4.8 -11.4622
683 2 16 16 3.2 -9.89682
684 3 17.6 17.6 4.8 -11.4803
685 2 19.2 16 3.2 -9.97371
686 2 20.8 17.6 4.8 -9.88706
687 2 22.4 16 3.2 -9.90394
688 2 24 17.6 4.8 -9.96239
689 3 25.6 16 3.2 -11.3558
690 2 27.2 17.6 4.8 -9.85494
691 2 28.8 16 3.2 -9.87054
692 1 30.4 17.6 4.8 -11.9133
693 3 32 16 3.2 -11.3989
694 3 33.6 17.6 4.8 -11.4479
695 1 35.2 16 3.2 -11.7562
696 2 36.8 17.6 4.8 -9.85547
697 1 38.4 16 3.2 -11.7675
698 2 40 17.6 4.8 -9.91729
699 2 41.6 16 3.2 -9.90839
700 2 43.2 17.6 4.8 -9.881
701 2 44.8 16 3.2 -9.91852
702 2 46.4 17.6 4.8 -9.98494
703 3 48 16 3.2 -11.4891
704 2 49.6 17.6 4.8 -9.96689
705 1 0 19.2 3.2 -11.8232
706 3 1.6 20.8 4.8 -11.2932
707 1 3.2 19.2 3.2 -11.7948
708 2 4.8 20.8 4.8 -9.87156
709 1 6.4 19.2 3.2 -11.8042
710 2 8 20.8 4.8 -9.89998
711 3 9.6 19.2 3.2 -11.4258
712 3 11.2 20.8 4.8 -11.4033
713 3 12.8 19.2 3.2 -11.4813
714 3 14.4 20.8 4.8 -11.4047
715 2 16 19.2 3.2 -9.96071
716 2 17.6 20.8 4.8 -9.88383
717 2 19.2 19.2 3.2 -9.95659
718 1 20.8 20.8 4.8 -11.8214
719 2 22.4 19.2 3.2 -9.98951
720 3 24 20.8 4.8 -11.4248
721 3 25.6 19.2 3.2 -11.4315
722 3 27.2 20.8 4.8 -11.4738
723 3 28.8 19.2 3.2 -11.4311
724 3 30.4 20.8 4.8 -11.5269
725 3 32 19.2 3.2 -11.4486
726 3 33.6 20.8 4.8 -11.4899
727 1 35.2 19.2 3.2 -11.8377
728 3 36.8 20.8 4.8 -11.296
729 3 38.4 19.2 3.2 -11.3666
730 2 40 20.8 4.8 -9.91162
731 3 41.6 19.2 3.2 -11.4375
732 2 43.2 20.8 4.8 -9.96145
733 2 44.8 19.2 3.2 -9.99655
734 2 46.4 20.8 4.8 -10.0053
735 3 48 19.2 3.2 -11.4203
736 3 49.6 20.8 4.8 -11.3554
737 1 0 22.4 3.2 -11.7758
738 2 1.6 24 4.8 -9.88678
739 1 3.2 22.4 3.2 -11.8192
740 3 4.8 24 4.8 -11.3736
741 1 6.4 22.4 3.2 -11.7411
742 3 8 24 4.8 -11.3781
743 3 9.6 22.4 3.2 -11.4407
744 2 11.2 24 4.8 -9.95492
745 3 12.8 22.4 3.2 -11.3986
746 3 14.4 24 4.8 -11.3497
747 2 16 22.4 3.2 -9.87638
748 2 17.6 24 4.8 -9.88159
749 2 19.2 22.4 3.2 -9.9445
750 2 20.8 24 4.8 -9.91676
751 3 22.4 22.4 3.2 -11.5145
752 2 24 24 4.8 -9.96324
753 1 25.6 22.4 3.2 -11.9012
754 3 27.2 24 4.8 -11.3306
755 2 28.8 22.4 3.2 -9.86457
756 3 30.4 24 4.8 -11.4428
757 1 32 22.4 3.2 -11.9428
758 3 33.6 24 4.8 -11.4396
759 1 35.2 22.4 3.2 -11.8523
760 3 36.8 24 4.8 -11.2745
761 1 38.4 22.4 3.2 -11.8323
762 3 40 24 4.8 -11.2657
763 1 41.6 22.4 3.2 -11.8595
764 2 43.2 24 4.8 -9.95056
765 2 44.8 22.4 3.2 -9.84841
766 2 46.4 24 4.8 -9.86247
767 1 48 22.4 3.2 -11.8625
768 2 49.6 24 4.8 -9.78576
769 1 0 25.6 3.2 -11.7939
771 2 3.2 25.6 3.2 -9.8516
773 1 6.4 25.6 3.2 -11.8242
775 3 9.6 25.6 3.2 -11.4428
777 2 12.8 25.6 3.2 -9.89454
779 2 16 25.6 3.2 -9.93479
781 3 19.2 25.6 3.2 -11.4259
783 3 22.4 25.6 3.2 -11.4157
785 2 25.6 25.6 3.2 -9.85299
787 1 28.8 25.6 3.2 -11.7899
789 1 32 25.6 3.2 -11.8476
791 1 35.2 25.6 3.2 -11.8414
793 1 38.4 25.6 3.2 -11.8649
795 1 41.6 25.6 3.2 -11.8511
797 1 44.8 25.6 3.2 -11.777
799 1 48 25.6 3.2 -11.8001
770 2 1.6 27.2 4.8 -9.90366
801 2 0 28.8 3.2 -9.92958
772 3 4.8 27.2 4.8 -11.4063
803 1 3.2 28.8 3.2 -11.8614
774 3 8 27.2 4.8 -11.4086
805 1 6.4 28.8 3.2 -11.8495
776 2 11.2 27.2 4.8 -9.8977
807 2 9.6 28.8 3.2 -9.88901
778 3 14.4 27.2 4.8 -11.3267
809 1 12.8 28.8 3.2 -11.817
780 2 17.6 27.2 4.8 -9.92105
811 2 16 28.8 3.2 -9.88187
782 1 20.8 27.2 4.8 -11.7922
813 2 19.2 28.8 3.2 -9.93635
784 1 24 27.2 4.8 -11.8284
815 2 22.4 28.8 3.2 -9.87262
817 3 25.6 28.8 3.2 -11.3714
786 2 27.2 27.2 4.8 -9.88662
819 2 28.8 28.8 3.2 -9.88664
788 3 30.4 27.2 4.8 -11.4047
821 1 32 28.8 3.2 -11.83
790 3 33.6 27.2 4.8 -11.3659
823 1 35.2 28.8 3.2 -11.8374
792 2 36.8 27.2 4.8 -9.91549
825 2 38.4 28.8 3.2 -9.9677
794 3 40 27.2 4.8 -11.4439
827 3 41.6 28.8 3.2 -11.4665
796 2 43.2 27.2 4.8 -9.9768
829 1 44.8 28.8 3.2 -11.8654
798 2 46.4 27.2 4.8 -9.89287
831 2 48 28.8 3.2 -9.90609
800 2 49.6 27.2 4.8 -9.90246
802 2 1.6 30.4 4.8 -9.95665
833 3 0 32 3.2 -11.501
804 2 4.8 30.4 4.8 -9.93975
835 3 3.2 32 3.2 -11.4016
806 2 8 30.4 4.8 -9.88889
837 2 6.4 32 3.2 -9.93572
808 2 11.2 30.4 4.8 -9.89127
839 2 9.6 32 3.2 -9.93836
810 3 14.4 30.4 4.8 -11.3283
841 1 12.8 32 3.2 -11.8881
812 2 17.6 30.4 4.8 -9.96829
843 2 16 32 3.2 -9.90959
814 2 20.8 30.4 4.8 -9.94561
845 2 19.2 32 3.2 -9.93684
816 3 24 30.4 4.8 -11.4345
847 2 22.4 32 3.2 -9.96574
849 2 25.6 32 3.2 -9.96281
818 2 27.2 30.4 4.8 -9.95179
851 2 28.8 32 3.2 -9.94116
820 3 30.4 30.4 4.8 -11.4444
853 1 32 32 3.2 -11.8627
822 2 33.6 30.4 4.8 -9.9063
855 2 35.2 32 3.2 -9.93542
824 2 36.8 30.4 4.8 -9.92934
857 3 38.4 32 3.2 -11.4617
826 2 40 30.4 4.8 -9.99818
859 3 41.6 32 3.2 -11.4296
828 2 43.2 30.4 4.8 -9.95895
861 2 44.8 32 3.2 -9.91421
830 2 46.4 30.4 4.8 -9.96586
863 3 48 32 3.2 -11.3877
832 2 49.6 30.4 4.8 -9.90783
834 2 1.6 33.6 4.8 -9.98284
865 3 0 35.2 3.2 -11.4995
836 2 4.8 33.6 4.8 -9.93119
867 1 3.2 35.2 3.2 -11.9464
838 1 8 33.6 4.8 -11.8303
869 2 6.4 35.2 3.2 -9.91638
840 2 11.2 33.6 4.8 -9.96529
871 2 9.6 35.2 3.2 -9.96746
842 2 14.4 33.6 4.8 -9.96427
873 3 12.8 35.2 3.2 -11.4276
844 2 17.6 33.6 4.8 -9.93554
875 2 16 35.2 3.2 -9.92971
846 2 20.8 33.6 4.8 -9.95644
877 1 19.2 35.2 3.2 -11.8578
848 3 24 33.6 4.8 -11.4557
879 2 22.4 35.2 3.2 -9.94784
881 3 25.6 35.2 3.2 -11.4736
850 3 27.2 33.6 4.8 -11.4525
883 3 28.8 35.2 3.2 -11.436
852 3 30.4 33.6 4.8 -11.5206
885 2 32 35.2 3.2 -9.9067
854 2 33.6 33.6 4.8 -9.93315
887 2 35.2 35.2 3.2 -9.95055
856 1 36.8 33.6 4.8 -11.8874
889 3 38.4 35.2 3.2 -11.4459
858 1 40 33.6 4.8 -11.8767
891 3 41.6 35.2 3.2 -11.4522
860 1 43.2 33.6 4.8 -11.8234
893 2 44.8 35.2 3.2 -9.96363
862 2 46.4 33.6 4.8 -9.86466
895 3 48 35.2 3.2 -11.4428
864 1 49.6 33.6 4.8 -11.9009
866 3 1.6 36.8 4.8 -11.4644
897 3 0 38.4 3.2 -11.4046
868 3 4.8 36.8 4.8 -11.4679
899 2 3.2 38.4 3.2 -9.94258
870 2 8 36.8 4.8 -9.90839
901 3 6.4 38.4 3.2 -11.4304
872 2 11.2 36.8 4.8 -9.9701
903 2 9.6 38.4 3.2 -9.89847
874 3 14.4 36.8 4.8 -11.4039
905 1 12.8 38.4 3.2 -11.8706
876 2 17.6 36.8 4.8 -9.94213
907 1 16 38.4 3.2 -11.8849
878 3 20.8 36.8 4.8 -11.3448
909 2 19.2 38.4 3.2 -9.85741
880 2 24 36.8 4.8 -10.0279
911 3 22.4 38.4 3.2 -11.5075
913 3 25.6 38.4 3.2 -11.532
882 3 27.2 36.8 4.8 -11.4289
915 2 28.8 38.4 3.2 -9.94741
884 3 30.4 36.8 4.8 -11.463
917 2 32 38.4 3.2 -9.90611
886 2 33.6 36.8 4.8 -9.99905
919 2 35.2 38.4 3.2 -9.94379
888 3 36.8 36.8 4.8 -11.4539
921 1 38.4 38.4 3.2 -11.9043
890 3 40 36.8 4.8 -11.4975
923 2 41.6 38.4 3.2 -9.97892
892 1 43.2 36.8 4.8 -11.9062
925 3 44.8 38.4 3.2 -11.5439
894 2 46.4 36.8 4.8 -9.93098
927 3 48 38.4 3.2 -11.5003
896 2 49.6 36.8 4.8 -9.89115
898 2 1.6 40 4.8 -9.86521
929 3 0 41.6 3.2 -11.3633
900 2 4.8 40 4.8 -9.90337
931 2 3.2 41.6 3.2 -9.89505
902 1 8 40 4.8 -11.7922
933 2 6.4 41.6 3.2 -9.90627
904 2 11.2 40 4.8 -9.89786
935 2 9.6 41.6 3.2 -9.92133
906 3 14.4 40 4.8 -11.5024
937 3 12.8 41.6 3.2 -11.454
908 3 17.6 40 4.8 -11.3898
939 3 16 41.6 3.2 -11.4962
910 2 20.8 40 4.8 -10.0186
941 2 19.2 41.6 3.2 -9.94501
912 3 24 40 4.8 -11.4642
943 2 22.4 41.6 3.2 -9.95074
945 3 25.6 41.6 3.2 -11.4691
914 3 27.2 40 4.8 -11.4256
947 2 28.8 41.6 3.2 -9.93375
916 2 30.4 40 4.8 -9.95391
949 1 32 41.6 3.2 -11.8658
918 3 33.6 40 4.8 -11.4864
951 2 35.2 41.6 3.2 -9.90861
920 3 36.8 40 4.8 -11.5251
953 1 38.4 41.6 3.2 -11.9137
922 3 40 40 4.8 -11.582
955 3 41.6 41.6 3.2 -11.4614
924 3 43.2 40 4.8 -11.4793
957 1 44.8 41.6 3.2 -11.927
926 2 46.4 40 4.8 -9.97503
959 3 48 41.6 3.2 -11.391
928 1 49.6 40 4.8 -11.8228
930 1 1.6 43.2 4.8 -11.8171
961 2 0 44.8 3.2 -9.90852
932 1 4.8 43.2 4.8 -11.8041
963 2 3.2 44.8 3.2 -9.9485
934 1 8 43.2 4.8 -11.7932
965 2 6.4 44.8 3.2 -9.90752
936 2 11.2 43.2 4.8 -9.95179
967 2 9.6 44.8 3.2 -9.95156
938 3 14.4 43.2 4.8 -11.5425
969 2 12.8 44.8 3.2 -9.99553
940 1 17.6 43.2 4.8 -11.9159
971 3 16 44.8 3.2 -11.5104
942 2 20.8 43.2 4.8 -9.91244
973 2 19.2 44.8 3.2 -9.95179
944 2 24 43.2 4.8 -9.96146
975 2 22.4 44.8 3.2 -9.97807
977 2 25.6 44.8 3.2 -9.98706
946 2 27.2 43.2 4.8 -9.93769
979 3 28.8 44.8 3.2 -11.5207
948 2 30.4 43.2 4.8 -9.94357
981 3 32 44.8 3.2 -11.4401
950 3 33.6 43.2 4.8 -11.5224
983 3 35.2 44.8 3.2 -11.4931
952 3 36.8 43.2 4.8 -11.5571
985 3 38.4 44.8 3.2 -11.514
954 3 40 43.2 4.8 -11.5679
987 3 41.6 44.8 3.2 -11.4694
956 3 43.2 43.2 4.8 -11.4972
989 1 44.8 44.8 3.2 -11.8933
958 2 46.4 43.2 4.8 -9.90124
991 2 48 44.8 3.2 -9.91461
960 1 49.6 43.2 4.8 -11.8141
962 2 1.6 46.4 4.8 -9.94289
993 2 0 48 3.2 -9.91385
964 3 4.8 46.4 4.8 -11.4746
995 2 3.2 48 3.2 -9.99028
966 2 8 46.4 4.8 -9.94514
997 2 6.4 48 3.2 -9.94103
968 3 11.2 46.4 4.8 -11.415
999 2 9.6 48 3.2 -9.95159
970 3 14.4 46.4 4.8 -11.5352
1001 2 12.8 48 3.2 -9.96366
972 1 17.6 46.4 4.8 -11.8233
1003 3 16 48 3.2 -11.47
974 2 20.8 46.4 4.8 -9.94764
1005 3 19.2 48 3.2 -11.371
976 3 24 46.4 4.8 -11.415
1007 2 22.4 48 3.2 -9.94564
1009 1 25.6 48 3.2 -11.901
978 2 27.2 46.4 4.8 -9.97462
1011 3 28.8 48 3.2 -11.4501
980 3 30.4 46.4 4.8 -11.4034
1013 3 32 48 3.2 -11.3045
982 2 33.6 46.4 4.8 -9.93787
1015 1 35.2 48 3.2 -11.7459
984 2 36.8 46.4 4.8 -9.93711
1017 2 38.4 48 3.2 -9.96473
986 1 40 46.4 4.8 -11.8946
1019 2 41.6 48 3.2 -10.0233
988 3 43.2 46.4 4.8 -11.4796
1021 3 44.8 48 3.2 -11.4851
990 2 46.4 46.4 4.8 -9.95995
1023 3 48 48 3.2 -11.4273
992 1 49.6 46.4 4.8 -11.8451
994 3 1.6 49.6 4.8 -11.4107
996 2 4.8 49.6 4.8 -9.97472
998 1 8 49.6 4.8 -11.8527
1000 2 11.2 49.6 4.8 -9.95514
1002 3 14.4 49.6 4.8 -11.5438
1004 1 17.6 49.6 4.8 -11.8636
1006 3 20.8 49.6 4.8 -11.4202
1008 3 24 49.6 4.8 -11.4997
1010 3 27.2 49.6 4.8 -11.4339
1012 3 30.4 49.6 4.8 -11.4425
1014 2 33.6 49.6 4.8 -9.8767
1016 3 36.8 49.6 4.8 -11.4245
1018 2 40 49.6 4.8 -9.9677
1020 2 43.2 49.6 4.8 -9.98486
1022 3 46.4 49.6 4.8 -11.5406
1024 2 49.6 49.6 4.8 -9.93948
1025 3 0 0 6.4 -11.4845
1026 1 1.6 1.6 8 -11.9101
1027 3 3.2 0 6.4 -11.5022
1028 2 4.8 1.6 8 -9.89655
1029 3 6.4 0 6.4 -11.4052
1030 1 8 1.6 8 -11.7078
1031 3 9.6 0 6.4 -11.3103
1032 2 11.2 1.6 8 -9.87235
1033 3 12.8 0 6.4 -11.5086
1034 1 14.4 1.6 8 -11.9443
1035 3 16 0 6.4 -11.4377
1036 1 17.6 1.6 8 -11.8406
1037 3 19.2 0 6.4 -11.3063
1038 1 20.8 1.6 8 -11.8746
1039 3 22.4 0 6.4 -11.5094
1040 3 24 1.6 8 -11.3845
1041 3 25.6 0 6.4 -11.4448
1042 1 27.2 1.6 8 -11.8589
1043 2 28.8 0 6.4 -9.94885
1044 2 30.4 1.6 8 -9.8954
1045 1 32 0 6.4 -11.8438
1046 3 33.6 1.6 8 -11.4492
1047 1 35.2 0 6.4 -11.903
1048 3 36.8 1.6 8 -11.4898
1049 1 38.4 0 6.4 -11.8975
1050 3 40 1.6 8 -11.4469
1051 2 41.6 0 6.4 -9.92002
1052 2 43.2 1.6 8 -9.85802
1053 2 44.8 0 6.4 -9.98083
1054 2 46.4 1.6 8 -9.90954
1055 3 48 0 6.4 -11.4958
1056 1 49.6 1.6 8 -11.8953
1057 3 0 3.2 6.4 -11.5012
1058 3 1.6 4.8 8 -11.4865
1059 3 3.2 3.2 6.4 -11.5203
1060 2 4.8 4.8 8 -9.99267
1061 2 6.4 3.2 6.4 -9.90478
1062 2 8 4.8 8 -9.86764
1063 2 9.6 3.2 6.4 -9.79496
1064 2 11.2 4.8 8 -9.90522
1065 2 12.8 3.2 6.4 -9.98494
1066 3 14.4 4.8 8 -11.5053
1067 3 16 3.2 6.4 -11.4581
1068 2 17.6 4.8 8 -9.86064
1069 3 19.2 3.2 6.4 -11.2738
1070 1 20.8 4.8 8 -11.8474
1071 3 22.4 3.2 6.4 -11.3389
1072 1 24 4.8 8 -11.9217
1073 3 25.6 3.2 6.4 -11.4226
1074 2 27.2 4.8 8 -9.90781
1075 3 28.8 3.2 6.4 -11.3687
1076 1 30.4 4.8 8 -11.8735
1077 2 32 3.2 6.4 -9.95735
1078 2 33.6 4.8 8 -9.96822
1079 2 35.2 3.2 6.4 -9.87143
1080 2 36.8 4.8 8 -9.89485
1081 1 38.4 3.2 6.4 -11.8454
1082 2 40 4.8 8 -9.92684
1083 2 41.6 3.2 6.4 -9.9679
1084 1 43.2 4.8 8 -11.749
1085 2 44.8 3.2 6.4 -9.85669
1086 2 46.4 4.8 8 -9.86982
1087 2 48 3.2 6.4 -9.91452
1088 2 49.6 4.8 8 -9.90642
1089 3 0 6.4 6.4 -11.3795
1090 1 1.6 8 8 -11.82
1091 3 3.2 6.4 6.4 -11.5536
1092 2 4.8 8 8 -9.92463
1093 1 6.4 6.4 6.4 -11.8518
1094 3 8 8 8 -11.3892
1095 2 9.6 6.4 6.4 -9.8751
1096 1 11.2 8 8 -11.8288
1097 2 12.8 6.4 6.4 -9.94244
1098 2 14.4 8 8 -9.98016
1099 2 16 6.4 6.4 -10.001
1100 1 17.6 8 8 -11.8453
1101 3 19.2 6.4 6.4 -11.4362
1102 2 20.8 8 8 -9.94847
1103 3 22.4 6.4 6.4 -11.4838