ITEM: TIMESTEP
0
ITEM: NUMBER OF ATOMS
8192
ITEM: BOX BOUNDS pp pp pp
0.0000000000000000e+00 5.1200000000000003e+01
0.0000000000000000e+00 5.1200000000000003e+01
0.0000000000000000e+00 5.1200000000000003e+01
ITEM: ATOMS id type x y z c_eng
1 2 0 0 0 -9.99628
2 1 1.6 1.6 1.6 -11.8781
3 3 3.2 0 0 -11.539
4 3 4.8 1.6 1.6 -11.5843
5 3 6.4 0 0 -11.6387
6 3 8 1.6 1.6 -11.5347
7 3 9.6 0 0 -11.6341
8 1 11.2 1.6 1.6 -11.9787
9 2 12.8 0 0 -10.0424
10 3 14.4 1.6 1.6 -11.5188
11 1 16 0 0 -11.934
12 3 17.6 1.6 1.6 -11.4553
13 1 19.2 0 0 -11.9396
14 3 20.8 1.6 1.6 -11.5739
15 1 22.4 0 0 -12.0064
16 3 24 1.6 1.6 -11.5698
17 3 25.6 0 0 -11.5483
18 1 27.2 1.6 1.6 -11.9804
19 3 28.8 0 0 -11.5612
20 3 30.4 1.6 1.6 -11.4011
21 3 32 0 0 -11.5136
22 1 33.6 1.6 1.6 -11.9261
23 3 35.2 0 0 -11.5249
24 3 36.8 1.6 1.6 -11.5676
25 3 38.4 0 0 -11.5772
26 3 40 1.6 1.6 -11.5768
27 3 41.6 0 0 -11.6176
28 3 43.2 1.6 1.6 -11.5772
29 3 44.8 0 0 -11.6369
30 1 46.4 1.6 1.6 -11.9719
31 3 48 0 0 -11.5113
32 1 49.6 1.6 1.6 -11.8903
33 3 0 3.2 0 -11.4663
34 3 1.6 4.8 1.6 -11.478
35 3 3.2 3.2 0 -11.5773
36 3 4.8 4.8 1.6 -11.5238
37 3 6.4 3.2 0 -11.6146
38 1 8 4.8 1.6 -12.0163
39 3 9.6 3.2 0 -11.5597
40 1 11.2 4.8 1.6 -11.9202
41 3 12.8 3.2 0 -11.5378
42 3 14.4 4.8 1.6 -11.5099
43 3 16 3.2 0 -11.5362
44 1 17.6 4.8 1.6 -11.9471
45 3 19.2 3.2 0 -11.525
46 3 20.8 4.8 1.6 -11.5693
47 2 22.4 3.2 0 -9.95199
48 3 24 4.8 1.6 -11.532
49 3 25.6 3.2 0 -11.557
50 1 27.2 4.8 1.6 -11.8844
51 3 28.8 3.2 0 -11.5625
52 1 30.4 4.8 1.6 -11.939
53 3 32 3.2 0 -11.5623
54 1 33.6 4.8 1.6 -11.8837
55 3 35.2 3.2 0 -11.5892
56 1 36.8 4.8 1.6 -11.8835
57 3 38.4 3.2 0 -11.588
58 1 40 4.8 1.6 -11.9273
59 3 41.6 3.2 0 -11.5625
60 1 43.2 4.8 1.6 -11.9723
61 3 44.8 3.2 0 -11.6023
62 3 46.4 4.8 1.6 -11.3638
63 3 48 3.2 0 -11.4961
64 1 49.6 4.8 1.6 -11.9408
65 3 0 6.4 0 -11.5526
66 1 1.6 8 1.6 -11.9495
67 3 3.2 6.4 0 -11.58
68 1 4.8 8 1.6 -11.9431
69 3 6.4 6.4 0 -11.6295
70 3 8 8 1.6 -11.5484
71 3 9.6 6.4 0 -11.5096
72 3 11.2 8 1.6 -11.551
73 2 12.8 6.4 0 -10.0184
74 3 14.4 8 1.6 -11.4749
75 3 16 6.4 0 -11.5388
76 1 17.6 8 1.6 -11.9173
77 3 19.2 6.4 0 -11.58
78 3 20.8 8 1.6 -11.5924
79 1 22.4 6.4 0 -12.0403
80 3 24 8 1.6 -11.5823
81 3 25.6 6.4 0 -11.5398
82 1 27.2 8 1.6 -11.8473
83 3 28.8 6.4 0 -11.5011
84 1 30.4 8 1.6 -11.958
85 3 32 6.4 0 -11.6064
86 3 33.6 8 1.6 -11.5373
87 3 35.2 6.4 0 -11.5156
88 3 36.8 8 1.6 -11.5508
89 3 38.4 6.4 0 -11.4635
90 3 40 8 1.6 -11.6051
91 3 41.6 6.4 0 -11.5884
92 3 43.2 8 1.6 -11.58
93 3 44.8 6.4 0 -11.5695
94 3 46.4 8 1.6 -11.581
95 3 48 6.4 0 -11.5253
96 1 49.6 8 1.6 -11.9103
97 3 0 9.6 0 -11.4785
98 1 1.6 11.2 1.6 -11.9486
99 3 3.2 9.6 0 -11.4793
100 1 4.8 11.2 1.6 -11.9799
101 3 6.4 9.6 0 -11.5105
102 3 8 11.2 1.6 -11.5797
103 1 9.6 9.6 0 -11.9803
104 3 11.2 11.2 1.6 -11.5886
105 1 12.8 9.6 0 -11.9422
106 3 14.4 11.2 1.6 -11.5946
107 1 16 9.6 0 -11.9126
108 3 17.6 11.2 1.6 -11.5099
109 3 19.2 9.6 0 -11.5503
110 3 20.8 11.2 1.6 -11.4864
111 3 22.4 9.6 0 -11.5655
112 2 24 11.2 1.6 -9.99549
113 3 25.6 9.6 0 -11.4804
114 1 27.2 11.2 1.6 -11.9096
115 2 28.8 9.6 0 -9.97742
116 3 30.4 11.2 1.6 -11.5566
117 3 32 9.6 0 -11.5688
118 3 33.6 11.2 1.6 -11.6143
119 1 35.2 9.6 0 -11.9804
120 3 36.8 11.2 1.6 -11.5522
121 1 38.4 9.6 0 -11.9438
122 3 40 11.2 1.6 -11.5301
123 3 41.6 9.6 0 -11.5112
124 3 43.2 11.2 1.6 -11.5522
125 1 44.8 9.6 0 -11.9477
126 3 46.4 11.2 1.6 -11.5374
127 3 48 9.6 0 -11.5573
128 1 49.6 11.2 1.6 -11.9431
129 3 0 12.8 0 -11.5801
130 3 1.6 14.4 1.6 -11.58
131 3 3.2 12.8 0 -11.6466
132 3 4.8 14.4 1.6 -11.6387
133 3 6.4 12.8 0 -11.6153
134 3 8 14.4 1.6 -11.6102
135 1 9.6 12.8 0 -11.9492
136 3 11.2 14.4 1.6 -11.5317
137 3 12.8 12.8 0 -11.3998
138 3 14.4 14.4 1.6 -11.5013
139 2 16 12.8 0 -10.0077
140 2 17.6 14.4 1.6 -9.98625
141 3 19.2 12.8 0 -11.5385
142 1 20.8 14.4 1.6 -11.9395
143 3 22.4 12.8 0 -11.514
144 3 24 14.4 1.6 -11.531
145 3 25.6 12.8 0 -11.5436
146 3 27.2 14.4 1.6 -11.5349
147 2 28.8 12.8 0 -10.0072
148 3 30.4 14.4 1.6 -11.6092
149 3 32 12.8 0 -11.554
150 3 33.6 14.4 1.6 -11.6776
151 3 35.2 12.8 0 -11.5773
152 3 36.8 14.4 1.6 -11.5543
153 1 38.4 12.8 0 -11.9073
154 2 40 14.4 1.6 -10.0165
155 1 41.6 12.8 0 -11.9147
156 3 43.2 14.4 1.6 -11.5402
157 1 44.8 12.8 0 -11.9636
158 3 46.4 14.4 1.6 -11.6449
159 3 48 12.8 0 -11.5345
160 3 49.6 14.4 1.6 -11.5407
161 1 0 16 0 -12.0158
162 3 1.6 17.6 1.6 -11.6066
163 3 3.2 16 0 -11.5766
164 3 4.8 17.6 1.6 -11.5766
165 3 6.4 16 0 -11.5769
166 3 8 17.6 1.6 -11.6375
167 1 9.6 16 0 -11.9352
168 3 11.2 17.6 1.6 -11.4697
169 1 12.8 16 0 -11.9172
170 3 14.4 17.6 1.6 -11.4418
171 1 16 16 0 -11.8429
172 2 17.6 17.6 1.6 -9.98378
173 2 19.2 16 0 -9.95421
174 2 20.8 17.6 1.6 -9.92066
175 3 22.4 16 0 -11.4159
176 1 24 17.6 1.6 -11.9723
177 3 25.6 16 0 -11.4928
178 1 27.2 17.6 1.6 -11.8277
179 1 28.8 16 0 -11.8735
180 2 30.4 17.6 1.6 -9.99308
181 1 32 16 0 -11.9451
182 3 33.6 17.6 1.6 -11.5101
183 3 35.2 16 0 -11.58
184 1 36.8 17.6 1.6 -11.9806
185 3 38.4 16 0 -11.5164
186 3 40 17.6 1.6 -11.5801
187 2 41.6 16 0 -10.0069
188 3 43.2 17.6 1.6 -11.6569
189 3 44.8 16 0 -11.556
190 3 46.4 17.6 1.6 -11.5681
191 3 48 16 0 -11.5806
192 3 49.6 17.6 1.6 -11.5325
193 3 0 19.2 0 -11.5356
194 3 1.6 20.8 1.6 -11.5234
195 3 3.2 19.2 0 -11.6067
196 1 4.8 20.8 1.6 -11.9216
197 3 6.4 19.2 0 -11.6066
198 3 8 20.8 1.6 -11.5111
199 3 9.6 19.2 0 -11.5489
200 3 11.2 20.8 1.6 -11.5332
201 3 12.8 19.2 0 -11.5309
202 3 14.4 20.8 1.6 -11.6075
203 2 16 19.2 0 -10.0028
204 2 17.6 20.8 1.6 -10.0239
205 3 19.2 19.2 0 -11.5393
206 3 20.8 20.8 1.6 -11.5953
207 3 22.4 19.2 0 -11.5317
208 3 24 20.8 1.6 -11.5772
209 3 25.6 19.2 0 -11.5043
210 1 27.2 20.8 1.6 -11.9463
211 2 28.8 19.2 0 -9.94055
212 3 30.4 20.8 1.6 -11.4146
213 2 32 19.2 0 -9.95942
214 1 33.6 20.8 1.6 -11.9687
215 3 35.2 19.2 0 -11.4648
216 1 36.8 20.8 1.6 -11.8907
217 3 38.4 19.2 0 -11.4273
218 3 40 20.8 1.6 -11.5796
219 1 41.6 19.2 0 -12.011
220 3 43.2 20.8 1.6 -11.5692
221 2 44.8 19.2 0 -9.99562
222 3 46.4 20.8 1.6 -11.631
223 3 48 19.2 0 -11.5819
224 3 49.6 20.8 1.6 -11.6107
225 3 0 22.4 0 -11.6108
226 3 1.6 24 1.6 -11.5331
227 3 3.2 22.4 0 -11.3859
228 1 4.8 24 1.6 -11.9255
229 3 6.4 22.4 0 -11.4611
230 3 8 24 1.6 -11.4945
231 3 9.6 22.4 0 -11.575
232 1 11.2 24 1.6 -11.9005
233 3 12.8 22.4 0 -11.6152
234 3 14.4 24 1.6 -11.5798
235 1 16 22.4 0 -11.987
236 3 17.6 24 1.6 -11.5403
237 3 19.2 22.4 0 -11.5367
238 3 20.8 24 1.6 -11.6681
239 3 22.4 22.4 0 -11.6514
240 3 24 24 1.6 -11.5536
241 3 25.6 22.4 0 -11.6196
242 3 27.2 24 1.6 -11.6029
243 2 28.8 22.4 0 -10.0129
244 3 30.4 24 1.6 -11.5733
245 2 32 22.4 0 -10.0108
246 3 33.6 24 1.6 -11.5402
247 3 35.2 22.4 0 -11.5091
248 3 36.8 24 1.6 -11.4878
249 3 38.4 22.4 0 -11.548
250 3 40 24 1.6 -11.5334
251 3 41.6 22.4 0 -11.5563
252 3 43.2 24 1.6 -11.5487
253 1 44.8 22.4 0 -12.0063
254 3 46.4 24 1.6 -11.6562
255 3 48 22.4 0 -11.5672
256 3 49.6 24 1.6 -11.6314
257 3 0 25.6 0 -11.6057
259 3 3.2 25.6 0 -11.4586
261 2 6.4 25.6 0 -10.0371
263 3 9.6 25.6 0 -11.5688
265 3 12.8 25.6 0 -11.549
267 1 16 25.6 0 -11.9103
269 1 19.2 25.6 0 -11.9702
271 3 22.4 25.6 0 -11.5847
273 3 25.6 25.6 0 -11.5601
275 1 28.8 25.6 0 -11.996
277 1 32 25.6 0 -11.9133
279 3 35.2 25.6 0 -11.5656
281 3 38.4 25.6 0 -11.5209
283 3 41.6 25.6 0 -11.5324
285 3 44.8 25.6 0 -11.5103
287 3 48 25.6 0 -11.678
258 3 1.6 27.2 1.6 -11.6153
289 3 0 28.8 0 -11.6063
260 3 4.8 27.2 1.6 -11.5348
291 3 3.2 28.8 0 -11.5367
262 3 8 27.2 1.6 -11.6209
293 3 6.4 28.8 0 -11.5559
264 3 11.2 27.2 1.6 -11.5201
295 1 9.6 28.8 0 -11.9484
266 3 14.4 27.2 1.6 -11.6056
297 3 12.8 28.8 0 -11.5112
268 3 17.6 27.2 1.6 -11.4853
299 1 16 28.8 0 -11.9349
270 3 20.8 27.2 1.6 -11.4766
301 1 19.2 28.8 0 -11.9531
272 1 24 27.2 1.6 -11.9571
303 3 22.4 28.8 0 -11.5242
305 2 25.6 28.8 0 -10.0477
274 3 27.2 27.2 1.6 -11.6051
307 3 28.8 28.8 0 -11.5297
276 3 30.4 27.2 1.6 -11.6059
309 3 32 28.8 0 -11.5805
278 3 33.6 27.2 1.6 -11.6466
311 3 35.2 28.8 0 -11.6371
280 3 36.8 27.2 1.6 -11.4997
313 3 38.4 28.8 0 -11.622
282 1 40 27.2 1.6 -11.95
315 3 41.6 28.8 0 -11.5463
284 1 43.2 27.2 1.6 -11.9211
317 2 44.8 28.8 0 -9.97935
286 3 46.4 27.2 1.6 -11.5918
319 3 48 28.8 0 -11.5561
288 3 49.6 27.2 1.6 -11.5484
290 3 1.6 30.4 1.6 -11.6035
321 3 0 32 0 -11.5806
292 3 4.8 30.4 1.6 -11.5104
323 3 3.2 32 0 -11.5253
294 3 8 30.4 1.6 -11.5822
325 3 6.4 32 0 -11.5377
296 3 11.2 30.4 1.6 -11.5517
327 1 9.6 32 0 -11.9495
298 3 14.4 30.4 1.6 -11.6371
329 3 12.8 32 0 -11.5545
300 3 17.6 30.4 1.6 -11.5503
331 2 16 32 0 -9.99548
302 3 20.8 30.4 1.6 -11.5114
333 3 19.2 32 0 -11.4925
304 1 24 30.4 1.6 -11.942
335 3 22.4 32 0 -11.5161
337 3 25.6 32 0 -11.5219
306 3 27.2 30.4 1.6 -11.5335
339 2 28.8 32 0 -10.0207
308 3 30.4 30.4 1.6 -11.5815
341 3 32 32 0 -11.4682
310 3 33.6 30.4 1.6 -11.5798
343 3 35.2 32 0 -11.5364
312 3 36.8 30.4 1.6 -11.6243
345 3 38.4 32 0 -11.5673
314 3 40 30.4 1.6 -11.549
347 3 41.6 32 0 -11.5549
316 1 43.2 30.4 1.6 -11.8755
349 2 44.8 32 0 -9.982
318 3 46.4 30.4 1.6 -11.5538
351 3 48 32 0 -11.5645
320 3 49.6 30.4 1.6 -11.6153
322 1 1.6 33.6 1.6 -11.8986
353 2 0 35.2 0 -10.0279
324 1 4.8 33.6 1.6 -11.9116
355 3 3.2 35.2 0 -11.3861
326 3 8 33.6 1.6 -11.5118
357 3 6.4 35.2 0 -11.4797
328 3 11.2 33.6 1.6 -11.5373
359 1 9.6 35.2 0 -11.8752
330 3 14.4 33.6 1.6 -11.5218
361 1 12.8 35.2 0 -11.997
332 1 17.6 33.6 1.6 -11.9629
363 3 16 35.2 0 -11.5682
334 1 20.8 33.6 1.6 -11.916
365 3 19.2 35.2 0 -11.5523
336 1 24 33.6 1.6 -11.9006
367 3 22.4 35.2 0 -11.4523
369 3 25.6 35.2 0 -11.4961
338 2 27.2 33.6 1.6 -9.97201
371 1 28.8 35.2 0 -11.9255
340 2 30.4 33.6 1.6 -9.98948
373 1 32 35.2 0 -11.8901
342 3 33.6 33.6 1.6 -11.4392
375 1 35.2 35.2 0 -11.9352
344 3 36.8 33.6 1.6 -11.5883
377 3 38.4 35.2 0 -11.5775
346 3 40 33.6 1.6 -11.5919
379 3 41.6 35.2 0 -11.6032
348 1 43.2 33.6 1.6 -11.9628
381 3 44.8 35.2 0 -11.5459
350 2 46.4 33.6 1.6 -9.94924
383 3 48 35.2 0 -11.5668
352 3 49.6 33.6 1.6 -11.4613
354 1 1.6 36.8 1.6 -11.9321
385 3 0 38.4 0 -11.5512
356 1 4.8 36.8 1.6 -11.9431
387 3 3.2 38.4 0 -11.5373
358 3 8 36.8 1.6 -11.479
389 3 6.4 38.4 0 -11.5805
360 3 11.2 36.8 1.6 -11.4418
391 1 9.6 38.4 0 -11.9617
362 3 14.4 36.8 1.6 -11.6344
393 2 12.8 38.4 0 -9.99338
364 3 17.6 36.8 1.6 -11.6391
395 3 16 38.4 0 -11.6097
366 3 20.8 36.8 1.6 -11.5243
397 3 19.2 38.4 0 -11.6063
368 2 24 36.8 1.6 -10.0148
399 3 22.4 38.4 0 -11.566
401 3 25.6 38.4 0 -11.6316
370 3 27.2 36.8 1.6 -11.5706
403 3 28.8 38.4 0 -11.5691
372 3 30.4 36.8 1.6 -11.4662
405 3 32 38.4 0 -11.5491
374 3 33.6 36.8 1.6 -11.5328
407 1 35.2 38.4 0 -11.944
376 3 36.8 36.8 1.6 -11.5892
409 1 38.4 38.4 0 -11.949
378 3 40 36.8 1.6 -11.5551
411 1 41.6 38.4 0 -11.9282
380 2 43.2 36.8 1.6 -10.0432
413 3 44.8 38.4 0 -11.5583
382 3 46.4 36.8 1.6 -11.5566
415 3 48 38.4 0 -11.5851
384 3 49.6 36.8 1.6 -11.5679
386 3 1.6 40 1.6 -11.5375
417 3 0 41.6 0 -11.4848
388 3 4.8 40 1.6 -11.5098
419 1 3.2 41.6 0 -11.9516
390 3 8 40 1.6 -11.5323
421 3 6.4 41.6 0 -11.5444
392 3 11.2 40 1.6 -11.4884
423 2 9.6 41.6 0 -9.99589
394 2 14.4 40 1.6 -10.0236
425 3 12.8 41.6 0 -11.5319
396 3 17.6 40 1.6 -11.5553
427 3 16 41.6 0 -11.4952
398 3 20.8 40 1.6 -11.5374
429 3 19.2 41.6 0 -11.5112
400 3 24 40 1.6 -11.5211
431 3 22.4 41.6 0 -11.593
433 3 25.6 41.6 0 -11.5774
402 3 27.2 40 1.6 -11.5479
435 3 28.8 41.6 0 -11.5244
404 1 30.4 40 1.6 -12.007
437 3 32 41.6 0 -11.6781
406 3 33.6 40 1.6 -11.5479
439 3 35.2 41.6 0 -11.5541
408 3 36.8 40 1.6 -11.5796
441 3 38.4 41.6 0 -11.5777
410 3 40 40 1.6 -11.5526
443 1 41.6 41.6 0 -11.8766
412 3 43.2 40 1.6 -11.4881
445 2 44.8 41.6 0 -9.99564
414 3 46.4 40 1.6 -11.5707
447 3 48 41.6 0 -11.5568
416 3 49.6 40 1.6 -11.5099
418 3 1.6 43.2 1.6 -11.4663
449 3 0 44.8 0 -11.5248
420 2 4.8 43.2 1.6 -10.0132
451 1 3.2 44.8 0 -11.9272
422 3 8 43.2 1.6 -11.5456
453 3 6.4 44.8 0 -11.591
424 3 11.2 43.2 1.6 -11.5529
455 3 9.6 44.8 0 -11.5627
426 3 14.4 43.2 1.6 -11.5145
457 2 12.8 44.8 0 -9.98957
428 3 17.6 43.2 1.6 -11.4964
459 1 16 44.8 0 -11.9051
430 3 20.8 43.2 1.6 -11.4657
461 1 19.2 44.8 0 -11.964
432 3 24 43.2 1.6 -11.4652
463 2 22.4 44.8 0 -9.90193
465 1 25.6 44.8 0 -11.9728
434 3 27.2 43.2 1.6 -11.5345
467 1 28.8 44.8 0 -11.9441
436 3 30.4 43.2 1.6 -11.6043
469 3 32 44.8 0 -11.5545
438 3 33.6 43.2 1.6 -11.6674
471 2 35.2 44.8 0 -9.95176
440 3 36.8 43.2 1.6 -11.6672
473 3 38.4 44.8 0 -11.5546
442 3 40 43.2 1.6 -11.6057
475 1 41.6 44.8 0 -11.9447
444 3 43.2 43.2 1.6 -11.5036
477 3 44.8 44.8 0 -11.558
446 3 46.4 43.2 1.6 -11.6196
479 3 48 44.8 0 -11.6292
448 3 49.6 43.2 1.6 -11.5183
450 3 1.6 46.4 1.6 -11.5653
481 3 0 48 0 -11.5551
452 3 4.8 46.4 1.6 -11.5315
483 1 3.2 48 0 -11.9622
454 2 8 46.4 1.6 -10.0071
485 3 6.4 48 0 -11.6034
456 3 11.2 46.4 1.6 -11.5669
487 3 9.6 48 0 -11.6333
458 3 14.4 46.4 1.6 -11.5627
489 3 12.8 48 0 -11.5559
460 3 17.6 46.4 1.6 -11.5517
491 1 16 48 0 -11.9633
462 3 20.8 46.4 1.6 -11.5877
493 3 19.2 48 0 -11.5112
464 3 24 46.4 1.6 -11.5877
495 3 22.4 48 0 -11.6176
497 3 25.6 48 0 -11.5774
466 3 27.2 46.4 1.6 -11.4957
499 1 28.8 48 0 -11.9345
468 3 30.4 46.4 1.6 -11.4887
501 1 32 48 0 -11.9495
470 3 33.6 46.4 1.6 -11.5168
503 1 35.2 48 0 -11.9293
472 3 36.8 46.4 1.6 -11.57
505 1 38.4 48 0 -11.9731
474 3 40 46.4 1.6 -11.6012
507 2 41.6 48 0 -9.89011
476 3 43.2 46.4 1.6 -11.6371
509 3 44.8 48 0 -11.6111
478 3 46.4 46.4 1.6 -11.5864
511 3 48 48 0 -11.5884
480 3 49.6 46.4 1.6 -11.5666
482 2 1.6 49.6 1.6 -9.98844
484 3 4.8 49.6 1.6 -11.5507
486 3 8 49.6 1.6 -11.646
488 3 11.2 49.6 1.6 -11.6227
490 3 14.4 49.6 1.6 -11.517
492 3 17.6 49.6 1.6 -11.5376
494 3 20.8 49.6 1.6 -11.5649
496 3 24 49.6 1.6 -11.6145
498 3 27.2 49.6 1.6 -11.5799
500 3 30.4 49.6 1.6 -11.4903
502 3 33.6 49.6 1.6 -11.433
504 3 36.8 49.6 1.6 -11.619
506 3 40 49.6 1.6 -11.6369
508 3 43.2 49.6 1.6 -11.6457
510 2 46.4 49.6 1.6 -9.89001
512 1 49.6 49.6 1.6 -11.9139
513 3 0 0 3.2 -11.4731
514 3 1.6 1.6 4.8 -11.5605
515 3 3.2 0 3.2 -11.4871
516 3 4.8 1.6 4.8 -11.5484
517 1 6.4 0 3.2 -11.9699
518 3 8 1.6 4.8 -11.5744
519 2 9.6 0 3.2 -9.99576
520 3 11.2 1.6 4.8 -11.5652
521 3 12.8 0 3.2 -11.5266
522 3 14.4 1.6 4.8 -11.5775
523 1 16 0 3.2 -11.9096
524 3 17.6 1.6 4.8 -11.5892
525 2 19.2 0 3.2 -9.9436
526 3 20.8 1.6 4.8 -11.5607
527 3 22.4 0 3.2 -11.4841
528 3 24 1.6 4.8 -11.5126
529 3 25.6 0 3.2 -11.6063
530 1 27.2 1.6 4.8 -11.947
531 3 28.8 0 3.2 -11.5107
532 3 30.4 1.6 4.8 -11.5926
533 1 32 0 3.2 -11.9351
534 3 33.6 1.6 4.8 -11.4946
535 2 35.2 0 3.2 -9.96882
536 3 36.8 1.6 4.8 -11.5359
537 3 38.4 0 3.2 -11.6566
538 1 40 1.6 4.8 -11.9959
539 3 41.6 0 3.2 -11.5916
540 3 43.2 1.6 4.8 -11.4872
541 3 44.8 0 3.2 -11.5879
542 1 46.4 1.6 4.8 -11.9489
543 3 48 0 3.2 -11.3979
544 3 49.6 1.6 4.8 -11.4525
545 3 0 3.2 3.2 -11.4394
546 3 1.6 4.8 4.8 -11.6066
547 1 3.2 3.2 3.2 -11.9572
548 2 4.8 4.8 4.8 -10.0428
549 3 6.4 3.2 3.2 -11.5118
550 3 8 4.8 4.8 -11.5257
551 3 9.6 3.2 3.2 -11.5121
552 3 11.2 4.8 4.8 -11.5804
553 3 12.8 3.2 3.2 -11.5801
554 3 14.4 4.8 4.8 -11.5487
555 1 16 3.2 3.2 -11.9471
556 3 17.6 4.8 4.8 -11.5476
557 3 19.2 3.2 3.2 -11.5241
558 3 20.8 4.8 4.8 -11.6342
559 1 22.4 3.2 3.2 -12.021
560 2 24 4.8 4.8 -10.0347
561 3 25.6 3.2 3.2 -11.3957
562 1 27.2 4.8 4.8 -11.8523
563 3 28.8 3.2 3.2 -11.4661
564 2 30.4 4.8 4.8 -9.95244
565 3 32 3.2 3.2 -11.4605
566 1 33.6 4.8 4.8 -11.8911
567 3 35.2 3.2 3.2 -11.4308
568 1 36.8 4.8 4.8 -11.9272
569 3 38.4 3.2 3.2 -11.5342
570 3 40 4.8 4.8 -11.4113
571 3 41.6 3.2 3.2 -11.5361
572 1 43.2 4.8 4.8 -11.963
573 3 44.8 3.2 3.2 -11.4959
574 1 46.4 4.8 4.8 -11.9723
575 3 48 3.2 3.2 -11.474
576 2 49.6 4.8 4.8 -9.94256
577 3 0 6.4 3.2 -11.5376
578 3 1.6 8 4.8 -11.5113
579 3 3.2 6.4 3.2 -11.5177
580 1 4.8 8 4.8 -11.95
581 3 6.4 6.4 3.2 -11.5673
582 3 8 8 4.8 -11.5657
583 3 9.6 6.4 3.2 -11.5804
584 3 11.2 8 4.8 -11.5657
585 3 12.8 6.4 3.2 -11.5968
586 1 14.4 8 4.8 -11.9629
587 3 16 6.4 3.2 -11.4767
588 1 17.6 8 4.8 -11.9349
589 3 19.2 6.4 3.2 -11.5896
590 2 20.8 8 4.8 -9.97758
591 3 22.4 6.4 3.2 -11.5325
592 3 24 8 4.8 -11.5291
593 2 25.6 6.4 3.2 -9.95858
594 1 27.2 8 4.8 -11.862
595 3 28.8 6.4 3.2 -11.3549
596 3 30.4 8 4.8 -11.4749
597 3 32 6.4 3.2 -11.4776
598 3 33.6 8 4.8 -11.5231
599 2 35.2 6.4 3.2 -9.96795
600 3 36.8 8 4.8 -11.5777
601 2 38.4 6.4 3.2 -10.0184
602 3 40 8 4.8 -11.5893
603 3 41.6 6.4 3.2 -11.5821
604 3 43.2 8 4.8 -11.5376
605 3 44.8 6.4 3.2 -11.5372
606 3 46.4 8 4.8 -11.5111
607 3 48 6.4 3.2 -11.5391
608 1 49.6 8 4.8 -11.9404
609 3 0 9.6 3.2 -11.4141
610 3 1.6 11.2 4.8 -11.5493
611 3 3.2 9.6 3.2 -11.4892
612 3 4.8 11.2 4.8 -11.5108
613 3 6.4 9.6 3.2 -11.6067
614 3 8 11.2 4.8 -11.5806
615 3 9.6 9.6 3.2 -11.5537
616 3 11.2 11.2 4.8 -11.6333
617 2 12.8 9.6 3.2 -10.0422
618 3 14.4 11.2 4.8 -11.5673
619 3 16 9.6 3.2 -11.4566
620 1 17.6 11.2 4.8 -11.9441
621 3 19.2 9.6 3.2 -11.5322
622 1 20.8 11.2 4.8 -11.9121
623 3 22.4 9.6 3.2 -11.6351
624 3 24 11.2 4.8 -11.5086
625 3 25.6 9.6 3.2 -11.5172
626 2 27.2 11.2 4.8 -9.9494
627 3 28.8 9.6 3.2 -11.5075
628 3 30.4 11.2 4.8 -11.6178
629 3 32 9.6 3.2 -11.6426
630 1 33.6 11.2 4.8 -11.964
631 3 35.2 9.6 3.2 -11.5689
632 3 36.8 11.2 4.8 -11.5332
633 3 38.4 9.6 3.2 -11.5307
634 3 40 11.2 4.8 -11.5633
635 3 41.6 9.6 3.2 -11.5773
636 3 43.2 11.2 4.8 -11.537
637 1 44.8 9.6 3.2 -11.985
638 3 46.4 11.2 4.8 -11.5806
639 3 48 9.6 3.2 -11.4788
640 1 49.6 11.2 4.8 -11.9399
641 3 0 12.8 3.2 -11.5185
642 3 1.6 14.4 4.8 -11.6204
643 3 3.2 12.8 3.2 -11.5799
644 3 4.8 14.4 4.8 -11.5549
645 3 6.4 12.8 3.2 -11.6025
646 2 8 14.4 4.8 -10.058
647 3 9.6 12.8 3.2 -11.5445
648 3 11.2 14.4 4.8 -11.5468
649 3 12.8 12.8 3.2 -11.618
650 3 14.4 14.4 4.8 -11.606
651 3 16 12.8 3.2 -11.582
652 3 17.6 14.4 4.8 -11.524
653 3 19.2 12.8 3.2 -11.5348
654 1 20.8 14.4 4.8 -11.9717
655 3 22.4 12.8 3.2 -11.592
656 3 24 14.4 4.8 -11.6153
657 3 25.6 12.8 3.2 -11.6564
658 3 27.2 14.4 4.8 -11.6002
659 3 28.8 12.8 3.2 -11.6456
660 3 30.4 14.4 4.8 -11.6675
661 3 32 12.8 3.2 -11.6776
662 3 33.6 14.4 4.8 -11.5659
663 3 35.2 12.8 3.2 -11.5923
664 3 36.8 14.4 4.8 -11.5033
665 1 38.4 12.8 3.2 -11.9382
666 2 40 14.4 4.8 -9.97957
667 3 41.6 12.8 3.2 -11.5224
668 1 43.2 14.4 4.8 -11.981
669 3 44.8 12.8 3.2 -11.5486
670 3 46.4 14.4 4.8 -11.5538
671 3 48 12.8 3.2 -11.6108
672 2 49.6 14.4 4.8 -9.9935
673 1 0 16 3.2 -11.9506
674 3 1.6 17.6 4.8 -11.537
675 3 3.2 16 3.2 -11.6148
676 1 4.8 17.6 4.8 -12.0153
677 3 6.4 16 3.2 -11.6475
678 3 8 17.6 4.8 -11.5254
679 2 9.6 16 3.2 -9.92818
680 3 11.2 17.6 4.8 -11.3644
681 1 12.8 16 3.2 -11.901
682 3 14.4 17.6 4.8 -11.4896
683 1 16 16 3.2 -11.9329
684 3 17.6 17.6 4.8 -11.5919
685 3 19.2 16 3.2 -11.5056
686 3 20.8 17.6 4.8 -11.6176
687 3 22.4 16 3.2 -11.5886
688 3 24 17.6 4.8 -11.5546
689 3 25.6 16 3.2 -11.5656
690 2 27.2 17.6 4.8 -9.99438
691 3 28.8 16 3.2 -11.4933
692 3 30.4 17.6 4.8 -11.5437
693 3 32 16 3.2 -11.6093
694 3 33.6 17.6 4.8 -11.6461
695 3 35.2 16 3.2 -11.6149
696 3 36.8 17.6 4.8 -11.5103
697 3 38.4 16 3.2 -11.5217
698 3 40 17.6 4.8 -11.6567
699 3 41.6 16 3.2 -11.6359
700 3 43.2 17.6 4.8 -11.5438
701 3 44.8 16 3.2 -11.6251
702 2 46.4 17.6 4.8 -10.043
703 2 48 16 3.2 -9.99572
704 3 49.6 17.6 4.8 -11.4095
705 1 0 19.2 3.2 -11.9342
706 3 1.6 20.8 4.8 -11.5262
707 3 3.2 19.2 3.2 -11.51
708 1 4.8 20.8 4.8 -11.947
709 3 6.4 19.2 3.2 -11.5375
710 3 8 20.8 4.8 -11.4922
711 1 9.6 19.2 3.2 -11.9346
712 3 11.2 20.8 4.8 -11.3624
713 1 12.8 19.2 3.2 -11.9447
714 3 14.4 20.8 4.8 -11.5411
715 3 16 19.2 3.2 -11.4977
716 1 17.6 20.8 4.8 -11.9717
717 3 19.2 19.2 3.2 -11.6447
718 3 20.8 20.8 4.8 -11.5675
719 3 22.4 19.2 3.2 -11.6672
720 3 24 20.8 4.8 -11.6235
721 3 25.6 19.2 3.2 -11.492
722 3 27.2 20.8 4.8 -11.4672
723 2 28.8 19.2 3.2 -10.0238
724 1 30.4 20.8 4.8 -11.9892
725 3 32 19.2 3.2 -11.578
726 2 33.6 20.8 4.8 -9.95314
727 3 35.2 19.2 3.2 -11.5374
728 1 36.8 20.8 4.8 -11.9417
729 3 38.4 19.2 3.2 -11.5806
730 3 40 20.8 4.8 -11.4877
731 3 41.6 19.2 3.2 -11.6144
732 1 43.2 20.8 4.8 -11.9507
733 3 44.8 19.2 3.2 -11.582
734 3 46.4 20.8 4.8 -11.531
735 1 48 19.2 3.2 -11.9451
736 3 49.6 20.8 4.8 -11.4282
737 2 0 22.4 3.2 -10.0238
738 2 1.6 24 4.8 -10.0323
739 2 3.2 22.4 3.2 -10.0072
740 2 4.8 24 4.8 -9.90957
741 3 6.4 22.4 3.2 -11.4722
742 2 8 24 4.8 -10.003
743 1 9.6 22.4 3.2 -11.8188
744 1 11.2 24 4.8 -11.829
745 3 12.8 22.4 3.2 -11.4768
746 3 14.4 24 4.8 -11.5441
747 3 16 22.4 3.2 -11.5909
748 2 17.6 24 4.8 -10.034
749 3 19.2 22.4 3.2 -11.611
750 3 20.8 24 4.8 -11.5774
751 3 22.4 22.4 3.2 -11.6906
752 2 24 24 4.8 -10.0423
753 3 25.6 22.4 3.2 -11.6021
754 3 27.2 24 4.8 -11.6567
755 3 28.8 22.4 3.2 -11.6057
756 3 30.4 24 4.8 -11.5365
757 3 32 22.4 3.2 -11.519
758 3 33.6 24 4.8 -11.5823
759 3 35.2 22.4 3.2 -11.503
760 1 36.8 24 4.8 -11.8812
761 2 38.4 22.4 3.2 -9.99445
762 1 40 24 4.8 -11.8787
763 3 41.6 22.4 3.2 -11.5545
764 1 43.2 24 4.8 -11.9434
765 3 44.8 22.4 3.2 -11.5659
766 2 46.4 24 4.8 -10.0068
767 3 48 22.4 3.2 -11.5799
768 1 49.6 24 4.8 -11.9402
769 3 0 25.6 3.2 -11.5844
771 3 3.2 25.6 3.2 -11.5684
773 3 6.4 25.6 3.2 -11.613
775 2 9.6 25.6 3.2 -9.94016
777 3 12.8 25.6 3.2 -11.5552
779 3 16 25.6 3.2 -11.5997
781 2 19.2 25.6 3.2 -10.0197
783 3 22.4 25.6 3.2 -11.5666
785 3 25.6 25.6 3.2 -11.6336
787 3 28.8 25.6 3.2 -11.5767
789 1 32 25.6 3.2 -12.016
791 3 35.2 25.6 3.2 -11.5551
793 2 38.4 25.6 3.2 -9.93379
795 3 41.6 25.6 3.2 -11.4658
797 3 44.8 25.6 3.2 -11.614
799 3 48 25.6 3.2 -11.5627
770 3 1.6 27.2 4.8 -11.5416
801 3 0 28.8 3.2 -11.5481
772 3 4.8 27.2 4.8 -11.5565
803 1 3.2 28.8 3.2 -11.9797
774 3 8 27.2 4.8 -11.52
805 3 6.4 28.8 3.2 -11.4869
776 3 11.2 27.2 4.8 -11.4353
807 1 9.6 28.8 3.2 -11.917
778 3 14.4 27.2 4.8 -11.5822
809 1 12.8 28.8 3.2 -11.9811
780 2 17.6 27.2 4.8 -10.0246
811 3 16 28.8 3.2 -11.4745
782 1 20.8 27.2 4.8 -11.9329
813 2 19.2 28.8 3.2 -10.0206
784 1 24 27.2 4.8 -11.9269
815 3 22.4 28.8 3.2 -11.5072
817 3 25.6 28.8 3.2 -11.5613
786 3 27.2 27.2 4.8 -11.6148
819 3 28.8 28.8 3.2 -11.6391
788 3 30.4 27.2 4.8 -11.5805
821 3 32 28.8 3.2 -11.5108
790 3 33.6 27.2 4.8 -11.5846
823 3 35.2 28.8 3.2 -11.6153
792 1 36.8 27.2 4.8 -11.9511
825 3 38.4 28.8 3.2 -11.5098
794 1 40 27.2 4.8 -11.9101
827 3 41.6 28.8 3.2 -11.4667
796 3 43.2 27.2 4.8 -11.4263
829 2 44.8 28.8 3.2 -9.97599
798 3 46.4 27.2 4.8 -11.5795
831 1 48 28.8 3.2 -11.9685
800 1 49.6 27.2 4.8 -11.9224
802 3 1.6 30.4 4.8 -11.5343
833 3 0 32 3.2 -11.5891
804 2 4.8 30.4 4.8 -9.93822
835 2 3.2 32 3.2 -9.9512
806 2 8 30.4 4.8 -9.98865
837 3 6.4 32 3.2 -11.5866
808 3 11.2 30.4 4.8 -11.5022
839 3 9.6 32 3.2 -11.4617
810 3 14.4 30.4 4.8 -11.51
841 3 12.8 32 3.2 -11.5929
812 3 17.6 30.4 4.8 -11.5824
843 3 16 32 3.2 -11.5825
814 3 20.8 30.4 4.8 -11.5446
845 3 19.2 32 3.2 -11.5254
816 2 24 30.4 4.8 -9.93556
847 3 22.4 32 3.2 -11.4655
849 3 25.6 32 3.2 -11.4799
818 3 27.2 30.4 4.8 -11.5923
851 3 28.8 32 3.2 -11.5687
820 3 30.4 30.4 4.8 -11.5523
853 1 32 32 3.2 -11.9225
822 3 33.6 30.4 4.8 -11.4892
855 1 35.2 32 3.2 -11.9381
824 3 36.8 30.4 4.8 -11.4785
857 1 38.4 32 3.2 -11.9562
826 3 40 30.4 4.8 -11.4842
859 3 41.6 32 3.2 -11.5014
828 1 43.2 30.4 4.8 -11.9828
861 3 44.8 32 3.2 -11.4606
830 3 46.4 30.4 4.8 -11.5355
863 3 48 32 3.2 -11.5657
832 3 49.6 30.4 4.8 -11.5239
834 2 1.6 33.6 4.8 -9.94503
865 2 0 35.2 3.2 -10.0246
836 2 4.8 33.6 4.8 -9.94952
867 3 3.2 35.2 3.2 -11.3714
838 2 8 33.6 4.8 -10.0414
869 3 6.4 35.2 3.2 -11.5509
840 3 11.2 33.6 4.8 -11.4967
871 1 9.6 35.2 3.2 -11.9534
842 1 14.4 33.6 4.8 -11.9626
873 2 12.8 35.2 3.2 -9.99568
844 1 17.6 33.6 4.8 -11.9486
875 3 16 35.2 3.2 -11.5817
846 1 20.8 33.6 4.8 -11.9492
877 3 19.2 35.2 3.2 -11.5486
848 1 24 33.6 4.8 -11.8786
879 3 22.4 35.2 3.2 -11.4274
881 2 25.6 35.2 3.2 -9.9749
850 1 27.2 33.6 4.8 -11.9713
883 3 28.8 35.2 3.2 -11.4558
852 3 30.4 33.6 4.8 -11.419
885 1 32 35.2 3.2 -11.8919
854 3 33.6 33.6 4.8 -11.3907
887 2 35.2 35.2 3.2 -9.94029
856 3 36.8 33.6 4.8 -11.5026
889 3 38.4 35.2 3.2 -11.5802
858 2 40 33.6 4.8 -10.0096
891 3 41.6 35.2 3.2 -11.6037
860 2 43.2 33.6 4.8 -9.92462
893 3 44.8 35.2 3.2 -11.5817
862 1 46.4 33.6 4.8 -11.9885
895 3 48 35.2 3.2 -11.5241
864 1 49.6 33.6 4.8 -11.9405
866 3 1.6 36.8 4.8 -11.5582
897 3 0 38.4 3.2 -11.4962
868 3 4.8 36.8 4.8 -11.5921
899 3 3.2 38.4 3.2 -11.5806
870 3 8 36.8 4.8 -11.6234
901 3 6.4 38.4 3.2 -11.5487
872 3 11.2 36.8 4.8 -11.6111
903 1 9.6 38.4 3.2 -11.9492
874 3 14.4 36.8 4.8 -11.6314
905 3 12.8 38.4 3.2 -11.5202
876 3 17.6 36.8 4.8 -11.5773
907 3 16 38.4 3.2 -11.6312
878 3 20.8 36.8 4.8 -11.5491
909 3 19.2 38.4 3.2 -11.5766
880 3 24 36.8 4.8 -11.5153
911 1 22.4 38.4 3.2 -11.9568
913 1 25.6 38.4 3.2 -11.9384
882 3 27.2 36.8 4.8 -11.554
915 2 28.8 38.4 3.2 -10.0091
884 2 30.4 36.8 4.8 -10.0658
917 3 32 38.4 3.2 -11.5494
886 3 33.6 36.8 4.8 -11.5402
919 3 35.2 38.4 3.2 -11.5566
888 3 36.8 36.8 4.8 -11.4993
921 3 38.4 38.4 3.2 -11.5852
890 1 40 36.8 4.8 -12.0066
923 3 41.6 38.4 3.2 -11.5125
892 3 43.2 36.8 4.8 -11.5197
925 2 44.8 38.4 3.2 -9.99913
894 3 46.4 36.8 4.8 -11.5405
927 1 48 38.4 3.2 -11.9168
896 2 49.6 36.8 4.8 -10.0067
898 3 1.6 40 4.8 -11.5405
929 1 0 41.6 3.2 -11.927
900 3 4.8 40 4.8 -11.5658
931 1 3.2 41.6 3.2 -11.9119
902 3 8 40 4.8 -11.4922
933 1 6.4 41.6 3.2 -11.9411
904 3 11.2 40 4.8 -11.5209
935 1 9.6 41.6 3.2 -11.893
906 3 14.4 40 4.8 -11.6002
937 1 12.8 41.6 3.2 -11.9268
908 3 17.6 40 4.8 -11.5804
939 1 16 41.6 3.2 -11.9624
910 3 20.8 40 4.8 -11.5372
941 1 19.2 41.6 3.2 -11.9486
912 3 24 40 4.8 -11.5304
943 1 22.4 41.6 3.2 -11.9156
945 1 25.6 41.6 3.2 -11.9293
914 3 27.2 40 4.8 -11.509
947 2 28.8 41.6 3.2 -9.97498
916 3 30.4 40 4.8 -11.4805
949 3 32 41.6 3.2 -11.629
918 1 33.6 40 4.8 -11.9806
951 3 35.2 41.6 3.2 -11.5796
920 1 36.8 40 4.8 -11.9804
953 3 38.4 41.6 3.2 -11.6153
922 3 40 40 4.8 -11.5104
955 1 41.6 41.6 3.2 -11.9493
924 3 43.2 40 4.8 -11.5307
957 1 44.8 41.6 3.2 -11.9291
926 3 46.4 40 4.8 -11.3859
959 1 48 41.6 3.2 -11.9005
928 2 49.6 40 4.8 -9.97752
930 3 1.6 43.2 4.8 -11.519
961 1 0 44.8 3.2 -11.9766
932 3 4.8 43.2 4.8 -11.4897
963 3 3.2 44.8 3.2 -11.4648
934 2 8 43.2 4.8 -9.96004
965 3 6.4 44.8 3.2 -11.5093
936 3 11.2 43.2 4.8 -11.4725
967 2 9.6 44.8 3.2 -9.98672
938 3 14.4 43.2 4.8 -11.5378
969 1 12.8 44.8 3.2 -11.9962
940 3 17.6 43.2 4.8 -11.5376
971 3 16 44.8 3.2 -11.44
942 3 20.8 43.2 4.8 -11.5494
973 1 19.2 44.8 3.2 -11.9435
944 3 24 43.2 4.8 -11.4652
975 1 22.4 44.8 3.2 -11.9385
977 1 25.6 44.8 3.2 -11.911
946 3 27.2 43.2 4.8 -11.4471
979 3 28.8 44.8 3.2 -11.414
948 3 30.4 43.2 4.8 -11.6197
981 3 32 44.8 3.2 -11.5544
950 3 33.6 43.2 4.8 -11.5368
983 1 35.2 44.8 3.2 -12.0317
952 3 36.8 43.2 4.8 -11.5851
985 3 38.4 44.8 3.2 -11.5775
954 3 40 43.2 4.8 -11.552
987 3 41.6 44.8 3.2 -11.4406
956 3 43.2 43.2 4.8 -11.4143
989 3 44.8 44.8 3.2 -11.5447
958 3 46.4 43.2 4.8 -11.4186
991 2 48 44.8 3.2 -9.93646
960 3 49.6 43.2 4.8 -11.4334
962 3 1.6 46.4 4.8 -11.5807
993 2 0 48 3.2 -10.0098
964 1 4.8 46.4 4.8 -11.9435
995 3 3.2 48 3.2 -11.542
966 1 8 46.4 4.8 -11.9415
997 3 6.4 48 3.2 -11.5151
968 3 11.2 46.4 4.8 -11.5356
999 3 9.6 48 3.2 -11.6234
970 3 14.4 46.4 4.8 -11.5487
1001 3 12.8 48 3.2 -11.6148
972 3 17.6 46.4 4.8 -11.6153
1003 3 16 48 3.2 -11.5478
974 3 20.8 46.4 4.8 -11.5104
1005 3 19.2 48 3.2 -11.593
976 3 24 46.4 4.8 -11.5376
1007 3 22.4 48 3.2 -11.5804
1009 3 25.6 48 3.2 -11.549
978 3 27.2 46.4 4.8 -11.4962
1011 1 28.8 48 3.2 -11.9499
980 3 30.4 46.4 4.8 -11.4652
1013 1 32 48 3.2 -11.9012
982 3 33.6 46.4 4.8 -11.5735
1015 2 35.2 48 3.2 -9.92429
984 3 36.8 46.4 4.8 -11.5891
1017 3 38.4 48 3.2 -11.4864
986 3 40 46.4 4.8 -11.4887
1019 1 41.6 48 3.2 -12.0088
988 3 43.2 46.4 4.8 -11.5062
1021 3 44.8 48 3.2 -11.567
990 2 46.4 46.4 4.8 -9.99103
1023 3 48 48 3.2 -11.5002
992 2 49.6 46.4 4.8 -10.0014
994 3 1.6 49.6 4.8 -11.5443
996 1 4.8 49.6 4.8 -11.9173
998 3 8 49.6 4.8 -11.496
1000 3 11.2 49.6 4.8 -11.6036
1002 1 14.4 49.6 4.8 -11.9468
1004 3 17.6 49.6 4.8 -11.4935
1006 1 20.8 49.6 4.8 -11.9247
1008 1 24 49.6 4.8 -11.9794
1010 3 27.2 49.6 4.8 -11.5105
1012 3 30.4 49.6 4.8 -11.4892
1014 3 33.6 49.6 4.8 -11.5246
1016 3 36.8 49.6 4.8 -11.6258
1018 3 40 49.6 4.8 -11.5199
1020 3 43.2 49.6 4.8 -11.5245
1022 1 46.4 49.6 4.8 -11.9429
1024 1 49.6 49.6 4.8 -11.9453
1025 3 0 0 6.4 -11.5791
1026 2 1.6 1.6 8 -10.0586
1027 3 3.2 0 6.4 -11.634
1028 3 4.8 1.6 8 -11.6089
1029 3 6.4 0 6.4 -11.4812
1030 3 8 1.6 8 -11.5661
1031 1 9.6 0 6.4 -12.0054
1032 3 11.2 1.6 8 -11.5805
1033 3 12.8 0 6.4 -11.58
1034 3 14.4 1.6 8 -11.5108
1035 3 16 0 6.4 -11.5068
1036 3 17.6 1.6 8 -11.5776
1037 1 19.2 0 6.4 -11.935
1038 3 20.8 1.6 8 -11.6467
1039 3 22.4 0 6.4 -11.5336
1040 3 24 1.6 8 -11.5665
1041 3 25.6 0 6.4 -11.5403
1042 2 27.2 1.6 8 -9.97488
1043 3 28.8 0 6.4 -11.5359
1044 3 30.4 1.6 8 -11.6228
1045 3 32 0 6.4 -11.5109
1046 3 33.6 1.6 8 -11.5799
1047 1 35.2 0 6.4 -12.0085
1048 3 36.8 1.6 8 -11.5966
1049 3 38.4 0 6.4 -11.4856
1050 2 40 1.6 8 -9.96922
1051 2 41.6 0 6.4 -9.97048
1052 3 43.2 1.6 8 -11.5174
1053 3 44.8 0 6.4 -11.5162
1054 3 46.4 1.6 8 -11.5661
1055 3 48 0 6.4 -11.5376
1056 3 49.6 1.6 8 -11.5442
1057 1 0 3.2 6.4 -11.9717
1058 3 1.6 4.8 8 -11.6231
1059 3 3.2 3.2 6.4 -11.5321
1060 3 4.8 4.8 8 -11.5325
1061 2 6.4 3.2 6.4 -10.0309
1062 3 8 4.8 8 -11.5485
1063 1 9.6 3.2 6.4 -11.9745
1064 3 11.2 4.8 8 -11.5378
1065 3 12.8 3.2 6.4 -11.6148
1066 1 14.4 4.8 8 -11.9804
1067 3 16 3.2 6.4 -11.6145
1068 3 17.6 4.8 8 -11.6392
1069 3 19.2 3.2 6.4 -11.6389
1070 3 20.8 4.8 8 -11.6562
1071 3 22.4 3.2 6.4 -11.6092
1072 3 24 4.8 8 -11.6127
1073 2 25.6 3.2 6.4 -9.99089
1074 3 27.2 4.8 8 -11.4303
1075 3 28.8 3.2 6.4 -11.5233
1076 3 30.4 4.8 8 -11.496
1077 3 32 3.2 6.4 -11.6093
1078 1 33.6 4.8 8 -11.9509
1079 3 35.2 3.2 6.4 -11.5373
1080 3 36.8 4.8 8 -11.4743
1081 3 38.4 3.2 6.4 -11.5904
1082 3 40 4.8 8 -11.568
1083 2 41.6 3.2 6.4 -10.012
1084 3 43.2 4.8 8 -11.5688
1085 3 44.8 3.2 6.4 -11.5825
1086 3 46.4 4.8 8 -11.605
1087 3 48 3.2 6.4 -11.5413
1088 3 49.6 4.8 8 -11.5411
1089 3 0 6.4 6.4 -11.5649
1090 3 1.6 8 8 -11.5766
1091 3 3.2 6.4 6.4 -11.6091
1092 1 4.8 8 8 -11.9615
1093 2 6.4 6.4 6.4 -10.003
1094 3 8 8 8 -11.4584
1095 1 9.6 6.4 6.4 -11.9369
1096 3 11.2 8 8 -11.4501
1097 3 12.8 6.4 6.4 -11.5377
1098 1 14.4 8 8 -11.9492
1099 3 16 6.4 6.4 -11.552
1100 3 17.6 8 8 -11.4869
1101 3 19.2 6.4 6.4 -11.6572
1102 2 20.8 8 8 -9.95567
1103 3 22.4 6.4 6.4 -11.6215