ITEM: TIMESTEP
0
ITEM: NUMBER OF ATOMS
8192
ITEM: BOX BOUNDS pp pp pp
0.0000000000000000e+00 5.1200000000000003e+01
0.0000000000000000e+00 5.1200000000000003e+01
0.0000000000000000e+00 5.1200000000000003e+01
ITEM: ATOMS id type x y z c_eng
1 3 0 0 0 -11.504
2 1 1.6 1.6 1.6 -11.9109
3 2 3.2 0 0 -10.0007
4 3 4.8 1.6 1.6 -11.5217
5 2 6.4 0 0 -10.0013
6 1 8 1.6 1.6 -11.9092
7 3 9.6 0 0 -11.5091
8 1 11.2 1.6 1.6 -11.9484
9 3 12.8 0 0 -11.4915
10 3 14.4 1.6 1.6 -11.4845
11 1 16 0 0 -11.9568
12 3 17.6 1.6 1.6 -11.4794
13 1 19.2 0 0 -11.9155
14 3 20.8 1.6 1.6 -11.5014
15 1 22.4 0 0 -11.9147
16 2 24 1.6 1.6 -10.0154
17 3 25.6 0 0 -11.5098
18 1 27.2 1.6 1.6 -11.9449
19 3 28.8 0 0 -11.6523
20 3 30.4 1.6 1.6 -11.5122
21 3 32 0 0 -11.4518
22 3 33.6 1.6 1.6 -11.5226
23 1 35.2 0 0 -11.9811
24 3 36.8 1.6 1.6 -11.5379
25 1 38.4 0 0 -11.9486
26 3 40 1.6 1.6 -11.5105
27 1 41.6 0 0 -11.9429
28 3 43.2 1.6 1.6 -11.6152
29 3 44.8 0 0 -11.5848
30 1 46.4 1.6 1.6 -11.9444
31 3 48 0 0 -11.5619
32 1 49.6 1.6 1.6 -11.9048
33 3 0 3.2 0 -11.4655
34 1 1.6 4.8 1.6 -11.9381
35 3 3.2 3.2 0 -11.4623
36 3 4.8 4.8 1.6 -11.5485
37 1 6.4 3.2 0 -11.938
38 3 8 4.8 1.6 -11.5474
39 3 9.6 3.2 0 -11.513
40 1 11.2 4.8 1.6 -11.9803
41 3 12.8 3.2 0 -11.552
42 1 14.4 4.8 1.6 -11.9288
43 3 16 3.2 0 -11.4788
44 1 17.6 4.8 1.6 -11.9479
45 3 19.2 3.2 0 -11.5572
46 3 20.8 4.8 1.6 -11.6037
47 2 22.4 3.2 0 -9.98855
48 3 24 4.8 1.6 -11.4974
49 2 25.6 3.2 0 -10.003
50 1 27.2 4.8 1.6 -11.9169
51 3 28.8 3.2 0 -11.5417
52 2 30.4 4.8 1.6 -10.0065
53 2 32 3.2 0 -10.0803
54 1 33.6 4.8 1.6 -11.9424
55 3 35.2 3.2 0 -11.5553
56 1 36.8 4.8 1.6 -11.9373
57 3 38.4 3.2 0 -11.5802
58 1 40 4.8 1.6 -11.9573
59 3 41.6 3.2 0 -11.6146
60 3 43.2 4.8 1.6 -11.5
61 3 44.8 3.2 0 -11.6059
62 1 46.4 4.8 1.6 -11.876
63 3 48 3.2 0 -11.4887
64 1 49.6 4.8 1.6 -11.917
65 3 0 6.4 0 -11.5115
66 1 1.6 8 1.6 -11.8898
67 3 3.2 6.4 0 -11.5394
68 1 4.8 8 1.6 -11.9511
69 3 6.4 6.4 0 -11.5481
70 3 8 8 1.6 -11.5917
71 3 9.6 6.4 0 -11.678
72 3 11.2 8 1.6 -11.5606
73 3 12.8 6.4 0 -11.5198
74 2 14.4 8 1.6 -9.9932
75 3 16 6.4 0 -11.5062
76 3 17.6 8 1.6 -11.5771
77 3 19.2 6.4 0 -11.5558
78 3 20.8 8 1.6 -11.605
79 1 22.4 6.4 0 -12.0401
80 3 24 8 1.6 -11.6155
81 3 25.6 6.4 0 -11.5312
82 1 27.2 8 1.6 -11.9487
83 3 28.8 6.4 0 -11.5661
84 3 30.4 8 1.6 -11.5867
85 3 32 6.4 0 -11.529
86 2 33.6 8 1.6 -9.99943
87 3 35.2 6.4 0 -11.5806
88 2 36.8 8 1.6 -10.003
89 3 38.4 6.4 0 -11.5658
90 3 40 8 1.6 -11.4942
91 3 41.6 6.4 0 -11.592
92 3 43.2 8 1.6 -11.5637
93 3 44.8 6.4 0 -11.5118
94 1 46.4 8 1.6 -11.8677
95 3 48 6.4 0 -11.4157
96 1 49.6 8 1.6 -11.8769
97 3 0 9.6 0 -11.4545
98 1 1.6 11.2 1.6 -11.851
99 2 3.2 9.6 0 -9.91322
100 1 4.8 11.2 1.6 -11.8911
101 3 6.4 9.6 0 -11.5551
102 3 8 11.2 1.6 -11.5371
103 3 9.6 9.6 0 -11.5106
104 3 11.2 11.2 1.6 -11.5625
105 1 12.8 9.6 0 -12.0192
106 3 14.4 11.2 1.6 -11.5417
107 2 16 9.6 0 -10.026
108 2 17.6 11.2 1.6 -10.0393
109 2 19.2 9.6 0 -10.0215
110 3 20.8 11.2 1.6 -11.4461
111 3 22.4 9.6 0 -11.5547
112 3 24 11.2 1.6 -11.5774
113 3 25.6 9.6 0 -11.5522
114 1 27.2 11.2 1.6 -11.9481
115 3 28.8 9.6 0 -11.5834
116 3 30.4 11.2 1.6 -11.5414
117 2 32 9.6 0 -9.96519
118 2 33.6 11.2 1.6 -9.97563
119 2 35.2 9.6 0 -10.0281
120 3 36.8 11.2 1.6 -11.5384
121 1 38.4 9.6 0 -11.9159
122 3 40 11.2 1.6 -11.5519
123 1 41.6 9.6 0 -11.9493
124 3 43.2 11.2 1.6 -11.5889
125 1 44.8 9.6 0 -11.873
126 3 46.4 11.2 1.6 -11.4532
127 2 48 9.6 0 -9.89463
128 1 49.6 11.2 1.6 -11.9048
129 3 0 12.8 0 -11.4537
130 2 1.6 14.4 1.6 -9.92176
131 2 3.2 12.8 0 -9.89509
132 2 4.8 14.4 1.6 -10.0045
133 3 6.4 12.8 0 -11.581
134 3 8 14.4 1.6 -11.6235
135 1 9.6 12.8 0 -11.986
136 3 11.2 14.4 1.6 -11.6458
137 3 12.8 12.8 0 -11.511
138 3 14.4 14.4 1.6 -11.6095
139 3 16 12.8 0 -11.5171
140 3 17.6 14.4 1.6 -11.4826
141 2 19.2 12.8 0 -9.95078
142 1 20.8 14.4 1.6 -11.9397
143 3 22.4 12.8 0 -11.5231
144 3 24 14.4 1.6 -11.5774
145 3 25.6 12.8 0 -11.6059
146 3 27.2 14.4 1.6 -11.6149
147 3 28.8 12.8 0 -11.5106
148 3 30.4 14.4 1.6 -11.5042
149 1 32 12.8 0 -11.9181
150 3 33.6 14.4 1.6 -11.562
151 3 35.2 12.8 0 -11.5201
152 3 36.8 14.4 1.6 -11.5918
153 3 38.4 12.8 0 -11.557
154 3 40 14.4 1.6 -11.6288
155 3 41.6 12.8 0 -11.5002
156 3 43.2 14.4 1.6 -11.5317
157 1 44.8 12.8 0 -11.9295
158 3 46.4 14.4 1.6 -11.5525
159 2 48 12.8 0 -9.97475
160 3 49.6 14.4 1.6 -11.525
161 1 0 16 0 -11.9268
162 3 1.6 17.6 1.6 -11.4825
163 1 3.2 16 0 -11.8826
164 3 4.8 17.6 1.6 -11.543
165 3 6.4 16 0 -11.6315
166 3 8 17.6 1.6 -11.6462
167 3 9.6 16 0 -11.5108
168 3 11.2 17.6 1.6 -11.6056
169 3 12.8 16 0 -11.5778
170 3 14.4 17.6 1.6 -11.6053
171 1 16 16 0 -11.9617
172 3 17.6 17.6 1.6 -11.5806
173 3 19.2 16 0 -11.428
174 1 20.8 17.6 1.6 -11.9106
175 3 22.4 16 0 -11.4143
176 1 24 17.6 1.6 -11.9492
177 3 25.6 16 0 -11.5792
178 3 27.2 17.6 1.6 -11.5924
179 1 28.8 16 0 -11.9912
180 2 30.4 17.6 1.6 -10.0586
181 1 32 16 0 -11.9107
182 3 33.6 17.6 1.6 -11.5802
183 3 35.2 16 0 -11.5666
184 1 36.8 17.6 1.6 -11.943
185 3 38.4 16 0 -11.5696
186 3 40 17.6 1.6 -11.6027
187 3 41.6 16 0 -11.4998
188 3 43.2 17.6 1.6 -11.5675
189 1 44.8 16 0 -11.9492
190 3 46.4 17.6 1.6 -11.5706
191 3 48 16 0 -11.5306
192 3 49.6 17.6 1.6 -11.5322
193 3 0 19.2 0 -11.5359
194 3 1.6 20.8 1.6 -11.6132
195 3 3.2 19.2 0 -11.5678
196 2 4.8 20.8 1.6 -9.94829
197 3 6.4 19.2 0 -11.6033
198 3 8 20.8 1.6 -11.6242
199 1 9.6 19.2 0 -12.0085
200 3 11.2 20.8 1.6 -11.5516
201 3 12.8 19.2 0 -11.5111
202 3 14.4 20.8 1.6 -11.6461
203 3 16 19.2 0 -11.639
204 3 17.6 20.8 1.6 -11.6091
205 3 19.2 19.2 0 -11.606
206 3 20.8 20.8 1.6 -11.5366
207 3 22.4 19.2 0 -11.4147
208 3 24 20.8 1.6 -11.4848
209 3 25.6 19.2 0 -11.5526
210 3 27.2 20.8 1.6 -11.5559
211 3 28.8 19.2 0 -11.6024
212 3 30.4 20.8 1.6 -11.5915
213 3 32 19.2 0 -11.5674
214 3 33.6 20.8 1.6 -11.6392
215 3 35.2 19.2 0 -11.5175
216 1 36.8 20.8 1.6 -11.9211
217 2 38.4 19.2 0 -9.98733
218 3 40 20.8 1.6 -11.5126
219 3 41.6 19.2 0 -11.5998
220 2 43.2 20.8 1.6 -10.0068
221 3 44.8 19.2 0 -11.4966
222 3 46.4 20.8 1.6 -11.5373
223 3 48 19.2 0 -11.5807
224 3 49.6 20.8 1.6 -11.5105
225 3 0 22.4 0 -11.5891
226 3 1.6 24 1.6 -11.5674
227 3 3.2 22.4 0 -11.5444
228 1 4.8 24 1.6 -11.9508
229 3 6.4 22.4 0 -11.5881
230 3 8 24 1.6 -11.6172
231 3 9.6 22.4 0 -11.5769
232 3 11.2 24 1.6 -11.6458
233 3 12.8 22.4 0 -11.5771
234 3 14.4 24 1.6 -11.6232
235 3 16 22.4 0 -11.6911
236 2 17.6 24 1.6 -10.0783
237 3 19.2 22.4 0 -11.5791
238 3 20.8 24 1.6 -11.5687
239 3 22.4 22.4 0 -11.5801
240 3 24 24 1.6 -11.5805
241 3 25.6 22.4 0 -11.5409
242 3 27.2 24 1.6 -11.5581
243 3 28.8 22.4 0 -11.5354
244 3 30.4 24 1.6 -11.5368
245 3 32 22.4 0 -11.5681
246 3 33.6 24 1.6 -11.5561
247 3 35.2 22.4 0 -11.5897
248 3 36.8 24 1.6 -11.5362
249 3 38.4 22.4 0 -11.5093
250 3 40 24 1.6 -11.5905
251 1 41.6 22.4 0 -11.9552
252 3 43.2 24 1.6 -11.6095
253 1 44.8 22.4 0 -11.8811
254 3 46.4 24 1.6 -11.6146
255 3 48 22.4 0 -11.4454
256 1 49.6 24 1.6 -12.0156
257 3 0 25.6 0 -11.606
259 3 3.2 25.6 0 -11.606
261 3 6.4 25.6 0 -11.606
263 3 9.6 25.6 0 -11.6393
265 3 12.8 25.6 0 -11.5542
267 3 16 25.6 0 -11.4997
269 1 19.2 25.6 0 -11.9532
271 3 22.4 25.6 0 -11.5803
273 3 25.6 25.6 0 -11.532
275 1 28.8 25.6 0 -11.9454
277 1 32 25.6 0 -11.9267
279 3 35.2 25.6 0 -11.4945
281 3 38.4 25.6 0 -11.5395
283 2 41.6 25.6 0 -10.0238
285 3 44.8 25.6 0 -11.6173
287 3 48 25.6 0 -11.5817
258 3 1.6 27.2 1.6 -11.6471
289 3 0 28.8 0 -11.5095
260 3 4.8 27.2 1.6 -11.5358
291 3 3.2 28.8 0 -11.537
262 3 8 27.2 1.6 -11.6336
293 3 6.4 28.8 0 -11.5567
264 3 11.2 27.2 1.6 -11.5317
295 1 9.6 28.8 0 -11.9382
266 3 14.4 27.2 1.6 -11.5317
297 2 12.8 28.8 0 -9.95272
268 3 17.6 27.2 1.6 -11.5087
299 1 16 28.8 0 -11.9725
270 3 20.8 27.2 1.6 -11.4946
301 1 19.2 28.8 0 -11.9431
272 1 24 27.2 1.6 -11.9743
303 3 22.4 28.8 0 -11.5799
305 3 25.6 28.8 0 -11.5727
274 2 27.2 27.2 1.6 -10.0243
307 3 28.8 28.8 0 -11.5339
276 3 30.4 27.2 1.6 -11.5582
309 3 32 28.8 0 -11.5413
278 3 33.6 27.2 1.6 -11.6067
311 3 35.2 28.8 0 -11.5653
280 3 36.8 27.2 1.6 -11.5106
313 3 38.4 28.8 0 -11.5743
282 1 40 27.2 1.6 -11.9646
315 3 41.6 28.8 0 -11.5793
284 3 43.2 27.2 1.6 -11.5672
317 3 44.8 28.8 0 -11.6172
286 3 46.4 27.2 1.6 -11.691
319 2 48 28.8 0 -10.0646
288 3 49.6 27.2 1.6 -11.5367
290 3 1.6 30.4 1.6 -11.5109
321 3 0 32 0 -11.4964
292 3 4.8 30.4 1.6 -11.5804
323 3 3.2 32 0 -11.5895
294 3 8 30.4 1.6 -11.596
325 3 6.4 32 0 -11.6349
296 3 11.2 30.4 1.6 -11.544
327 2 9.6 32 0 -9.94556
298 3 14.4 30.4 1.6 -11.5881
329 3 12.8 32 0 -11.5772
300 3 17.6 30.4 1.6 -11.5374
331 3 16 32 0 -11.5557
302 3 20.8 30.4 1.6 -11.6153
333 3 19.2 32 0 -11.479
304 3 24 30.4 1.6 -11.5768
335 3 22.4 32 0 -11.606
337 3 25.6 32 0 -11.6426
306 3 27.2 30.4 1.6 -11.5955
339 3 28.8 32 0 -11.5409
308 2 30.4 30.4 1.6 -10.0363
341 2 32 32 0 -9.94009
310 3 33.6 30.4 1.6 -11.496
343 2 35.2 32 0 -9.97039
312 2 36.8 30.4 1.6 -9.99281
345 3 38.4 32 0 -11.5672
314 3 40 30.4 1.6 -11.5923
347 3 41.6 32 0 -11.5797
316 3 43.2 30.4 1.6 -11.5771
349 3 44.8 32 0 -11.5655
318 3 46.4 30.4 1.6 -11.5675
351 3 48 32 0 -11.527
320 3 49.6 30.4 1.6 -11.538
322 1 1.6 33.6 1.6 -11.9619
353 3 0 35.2 0 -11.4734
324 2 4.8 33.6 1.6 -9.98219
355 3 3.2 35.2 0 -11.5105
326 2 8 33.6 1.6 -10.0459
357 3 6.4 35.2 0 -11.5508
328 3 11.2 33.6 1.6 -11.5369
359 1 9.6 35.2 0 -11.8521
330 3 14.4 33.6 1.6 -11.5367
361 1 12.8 35.2 0 -11.9808
332 1 17.6 33.6 1.6 -11.9527
363 3 16 35.2 0 -11.5311
334 1 20.8 33.6 1.6 -11.9161
365 3 19.2 35.2 0 -11.5492
336 1 24 33.6 1.6 -11.9448
367 3 22.4 35.2 0 -11.5628
369 3 25.6 35.2 0 -11.5108
338 3 27.2 33.6 1.6 -11.5368
371 1 28.8 35.2 0 -11.9803
340 3 30.4 33.6 1.6 -11.5647
373 1 32 35.2 0 -11.9352
342 3 33.6 33.6 1.6 -11.5019
375 2 35.2 35.2 0 -9.98364
344 2 36.8 33.6 1.6 -10.0387
377 3 38.4 35.2 0 -11.6494
346 3 40 33.6 1.6 -11.5791
379 2 41.6 35.2 0 -10.0318
348 1 43.2 33.6 1.6 -11.9859
381 3 44.8 35.2 0 -11.5804
350 1 46.4 33.6 1.6 -11.9489
383 3 48 35.2 0 -11.5345
352 1 49.6 33.6 1.6 -11.9159
354 1 1.6 36.8 1.6 -11.9705
385 3 0 38.4 0 -11.5888
356 1 4.8 36.8 1.6 -11.9595
387 3 3.2 38.4 0 -11.5004
358 3 8 36.8 1.6 -11.5097
389 3 6.4 38.4 0 -11.4949
360 3 11.2 36.8 1.6 -11.5592
391 1 9.6 38.4 0 -11.9989
362 3 14.4 36.8 1.6 -11.6186
393 3 12.8 38.4 0 -11.5246
364 3 17.6 36.8 1.6 -11.5512
395 2 16 38.4 0 -10.007
366 3 20.8 36.8 1.6 -11.5127
397 3 19.2 38.4 0 -11.5686
368 2 24 36.8 1.6 -10.0319
399 3 22.4 38.4 0 -11.6312
401 3 25.6 38.4 0 -11.631
370 3 27.2 36.8 1.6 -11.6477
403 3 28.8 38.4 0 -11.5806
372 3 30.4 36.8 1.6 -11.5101
405 3 32 38.4 0 -11.5362
374 3 33.6 36.8 1.6 -11.5529
407 1 35.2 38.4 0 -11.998
376 3 36.8 36.8 1.6 -11.6341
409 3 38.4 38.4 0 -11.577
378 3 40 36.8 1.6 -11.6306
411 3 41.6 38.4 0 -11.5329
380 3 43.2 36.8 1.6 -11.544
413 3 44.8 38.4 0 -11.6537
382 3 46.4 36.8 1.6 -11.5926
415 3 48 38.4 0 -11.5655
384 3 49.6 36.8 1.6 -11.4786
386 3 1.6 40 1.6 -11.5546
417 3 0 41.6 0 -11.6145
388 2 4.8 40 1.6 -9.94746
419 1 3.2 41.6 0 -11.9152
390 3 8 40 1.6 -11.5118
421 1 6.4 41.6 0 -11.9441
392 3 11.2 40 1.6 -11.5888
423 2 9.6 41.6 0 -9.94262
394 3 14.4 40 1.6 -11.518
425 3 12.8 41.6 0 -11.5615
396 3 17.6 40 1.6 -11.5202
427 3 16 41.6 0 -11.4848
398 3 20.8 40 1.6 -11.6334
429 3 19.2 41.6 0 -11.6153
400 3 24 40 1.6 -11.645
431 3 22.4 41.6 0 -11.6569
433 3 25.6 41.6 0 -11.5542
402 3 27.2 40 1.6 -11.6307
435 2 28.8 41.6 0 -10.0358
404 1 30.4 40 1.6 -12.0187
437 3 32 41.6 0 -11.5564
406 3 33.6 40 1.6 -11.5347
439 3 35.2 41.6 0 -11.5771
408 3 36.8 40 1.6 -11.6672
441 3 38.4 41.6 0 -11.6394
410 3 40 40 1.6 -11.6461
443 1 41.6 41.6 0 -11.8972
412 3 43.2 40 1.6 -11.623
445 3 44.8 41.6 0 -11.5919
414 3 46.4 40 1.6 -11.6777
447 3 48 41.6 0 -11.6516
416 3 49.6 40 1.6 -11.6146
418 3 1.6 43.2 1.6 -11.5486
449 3 0 44.8 0 -11.6037
420 3 4.8 43.2 1.6 -11.3543
451 1 3.2 44.8 0 -11.9398
422 3 8 43.2 1.6 -11.5116
453 3 6.4 44.8 0 -11.5002
424 3 11.2 43.2 1.6 -11.4577
455 3 9.6 44.8 0 -11.5123
426 3 14.4 43.2 1.6 -11.4901
457 3 12.8 44.8 0 -11.4847
428 3 17.6 43.2 1.6 -11.4955
459 1 16 44.8 0 -11.9211
430 3 20.8 43.2 1.6 -11.5967
461 1 19.2 44.8 0 -11.9294
432 3 24 43.2 1.6 -11.5699
463 2 22.4 44.8 0 -9.90006
465 1 25.6 44.8 0 -11.9761
434 3 27.2 43.2 1.6 -11.6201
467 3 28.8 44.8 0 -11.4614
436 3 30.4 43.2 1.6 -11.551
469 1 32 44.8 0 -11.9499
438 3 33.6 43.2 1.6 -11.6063
471 3 35.2 44.8 0 -11.511
440 3 36.8 43.2 1.6 -11.6772
473 3 38.4 44.8 0 -11.6316
442 3 40 43.2 1.6 -11.5814
475 1 41.6 44.8 0 -11.8997
444 3 43.2 43.2 1.6 -11.5805
477 3 44.8 44.8 0 -11.5393
446 3 46.4 43.2 1.6 -11.6145
479 3 48 44.8 0 -11.5177
448 3 49.6 43.2 1.6 -11.6346
450 3 1.6 46.4 1.6 -11.4978
481 3 0 48 0 -11.5525
452 3 4.8 46.4 1.6 -11.4423
483 1 3.2 48 0 -11.9369
454 3 8 46.4 1.6 -11.5524
485 2 6.4 48 0 -9.97887
456 3 11.2 46.4 1.6 -11.4949
487 3 9.6 48 0 -11.4986
458 3 14.4 46.4 1.6 -11.5424
489 2 12.8 48 0 -10.0319
460 2 17.6 46.4 1.6 -10.0214
491 3 16 48 0 -11.5338
462 2 20.8 46.4 1.6 -10.0499
493 3 19.2 48 0 -11.5575
464 3 24 46.4 1.6 -11.5621
495 3 22.4 48 0 -11.6097
497 3 25.6 48 0 -11.6178
466 3 27.2 46.4 1.6 -11.588
499 3 28.8 48 0 -11.5774
468 3 30.4 46.4 1.6 -11.4652
501 1 32 48 0 -11.9499
470 3 33.6 46.4 1.6 -11.4141
503 3 35.2 48 0 -11.5114
472 3 36.8 46.4 1.6 -11.6232
505 3 38.4 48 0 -11.5679
474 2 40 46.4 1.6 -10.0371
507 1 41.6 48 0 -11.9209
476 3 43.2 46.4 1.6 -11.5793
509 3 44.8 48 0 -11.5803
478 3 46.4 46.4 1.6 -11.5923
511 3 48 48 0 -11.5414
480 2 49.6 46.4 1.6 -9.97918
482 2 1.6 49.6 1.6 -9.96976
484 3 4.8 49.6 1.6 -11.5263
486 3 8 49.6 1.6 -11.523
488 1 11.2 49.6 1.6 -11.9447
490 2 14.4 49.6 1.6 -10.0234
492 3 17.6 49.6 1.6 -11.4969
494 3 20.8 49.6 1.6 -11.5251
496 3 24 49.6 1.6 -11.6225
498 3 27.2 49.6 1.6 -11.6144
500 3 30.4 49.6 1.6 -11.5597
502 3 33.6 49.6 1.6 -11.4303
504 3 36.8 49.6 1.6 -11.5519
506 3 40 49.6 1.6 -11.4996
508 3 43.2 49.6 1.6 -11.6065
510 3 46.4 49.6 1.6 -11.5109
512 1 49.6 49.6 1.6 -11.9621
513 3 0 0 3.2 -11.5118
514 3 1.6 1.6 4.8 -11.5804
515 3 3.2 0 3.2 -11.5794
516 3 4.8 1.6 4.8 -11.6312
517 3 6.4 0 3.2 -11.5922
518 3 8 1.6 4.8 -11.5798
519 3 9.6 0 3.2 -11.5373
520 3 11.2 1.6 4.8 -11.5803
521 3 12.8 0 3.2 -11.5656
522 3 14.4 1.6 4.8 -11.6244
523 1 16 0 3.2 -11.9265
524 3 17.6 1.6 4.8 -11.479
525 1 19.2 0 3.2 -11.9153
526 3 20.8 1.6 4.8 -11.6065
527 1 22.4 0 3.2 -11.9569
528 3 24 1.6 4.8 -11.4955
529 3 25.6 0 3.2 -11.5403
530 1 27.2 1.6 4.8 -11.9381
531 3 28.8 0 3.2 -11.5105
532 3 30.4 1.6 4.8 -11.6149
533 1 32 0 3.2 -11.9811
534 3 33.6 1.6 4.8 -11.5802
535 1 35.2 0 3.2 -11.9429
536 3 36.8 1.6 4.8 -11.5489
537 3 38.4 0 3.2 -11.5363
538 1 40 1.6 4.8 -11.9981
539 3 41.6 0 3.2 -11.5352
540 3 43.2 1.6 4.8 -11.5107
541 3 44.8 0 3.2 -11.6465
542 1 46.4 1.6 4.8 -11.9519
543 3 48 0 3.2 -11.4409
544 2 49.6 1.6 4.8 -9.91796
545 3 0 3.2 3.2 -11.4574
546 3 1.6 4.8 4.8 -11.6037
547 3 3.2 3.2 3.2 -11.6239
548 3 4.8 4.8 4.8 -11.6911
549 3 6.4 3.2 3.2 -11.6145
550 3 8 4.8 4.8 -11.6231
551 3 9.6 3.2 3.2 -11.5376
552 3 11.2 4.8 4.8 -11.557
553 3 12.8 3.2 3.2 -11.5892
554 2 14.4 4.8 4.8 -9.89001
555 3 16 3.2 3.2 -11.5188
556 1 17.6 4.8 4.8 -11.9759
557 3 19.2 3.2 3.2 -11.5806
558 3 20.8 4.8 4.8 -11.4859
559 3 22.4 3.2 3.2 -11.5821
560 1 24 4.8 4.8 -11.9665
561 3 25.6 3.2 3.2 -11.411
562 1 27.2 4.8 4.8 -11.8424
563 3 28.8 3.2 3.2 -11.5304
564 3 30.4 4.8 4.8 -11.554
565 3 32 3.2 3.2 -11.5403
566 1 33.6 4.8 4.8 -11.9484
567 3 35.2 3.2 3.2 -11.479
568 1 36.8 4.8 4.8 -11.916
569 3 38.4 3.2 3.2 -11.4899
570 1 40 4.8 4.8 -11.8745
571 3 41.6 3.2 3.2 -11.5303
572 1 43.2 4.8 4.8 -11.942
573 3 44.8 3.2 3.2 -11.4891
574 1 46.4 4.8 4.8 -11.9112
575 3 48 3.2 3.2 -11.3911
576 3 49.6 4.8 4.8 -11.5247
577 3 0 6.4 3.2 -11.5486
578 3 1.6 8 4.8 -11.5773
579 3 3.2 6.4 3.2 -11.6058
580 3 4.8 8 4.8 -11.5535
581 3 6.4 6.4 3.2 -11.6693
582 2 8 8 4.8 -10.037
583 3 9.6 6.4 3.2 -11.5343
584 3 11.2 8 4.8 -11.5104
585 3 12.8 6.4 3.2 -11.5712
586 1 14.4 8 4.8 -11.9632
587 3 16 6.4 3.2 -11.517
588 3 17.6 8 4.8 -11.4867
589 3 19.2 6.4 3.2 -11.6056
590 1 20.8 8 4.8 -11.9808
591 3 22.4 6.4 3.2 -11.5844
592 3 24 8 4.8 -11.5001
593 3 25.6 6.4 3.2 -11.4588
594 1 27.2 8 4.8 -11.9272
595 3 28.8 6.4 3.2 -11.5296
596 3 30.4 8 4.8 -11.6312
597 3 32 6.4 3.2 -11.6197
598 3 33.6 8 4.8 -11.533
599 3 35.2 6.4 3.2 -11.5101
600 3 36.8 8 4.8 -11.542
601 3 38.4 6.4 3.2 -11.4285
602 3 40 8 4.8 -11.5229
603 2 41.6 6.4 3.2 -10.0368
604 3 43.2 8 4.8 -11.4968
605 3 44.8 6.4 3.2 -11.4787
606 2 46.4 8 4.8 -9.98935
607 3 48 6.4 3.2 -11.4655
608 3 49.6 8 4.8 -11.4867
609 3 0 9.6 3.2 -11.4892
610 3 1.6 11.2 4.8 -11.5358
611 3 3.2 9.6 3.2 -11.4885
612 3 4.8 11.2 4.8 -11.5658
613 3 6.4 9.6 3.2 -11.5663
614 3 8 11.2 4.8 -11.461
615 1 9.6 9.6 3.2 -11.9576
616 3 11.2 11.2 4.8 -11.4787
617 3 12.8 9.6 3.2 -11.4946
618 1 14.4 11.2 4.8 -11.9111
619 3 16 9.6 3.2 -11.5726
620 3 17.6 11.2 4.8 -11.496
621 3 19.2 9.6 3.2 -11.5862
622 1 20.8 11.2 4.8 -11.9636
623 3 22.4 9.6 3.2 -11.6462
624 3 24 11.2 4.8 -11.5108
625 3 25.6 9.6 3.2 -11.5483
626 1 27.2 11.2 4.8 -11.9799
627 3 28.8 9.6 3.2 -11.5489
628 3 30.4 11.2 4.8 -11.5369
629 3 32 9.6 3.2 -11.5415
630 1 33.6 11.2 4.8 -11.8994
631 3 35.2 9.6 3.2 -11.5293
632 3 36.8 11.2 4.8 -11.435
633 1 38.4 9.6 3.2 -11.9275
634 3 40 11.2 4.8 -11.4887
635 3 41.6 9.6 3.2 -11.4864
636 3 43.2 11.2 4.8 -11.6332
637 3 44.8 9.6 3.2 -11.5101
638 3 46.4 11.2 4.8 -11.5817
639 3 48 9.6 3.2 -11.5059
640 1 49.6 11.2 4.8 -11.9857
641 3 0 12.8 3.2 -11.4927
642 3 1.6 14.4 4.8 -11.5295
643 2 3.2 12.8 3.2 -9.97391
644 3 4.8 14.4 4.8 -11.4795
645 3 6.4 12.8 3.2 -11.5114
646 3 8 14.4 4.8 -11.6062
647 1 9.6 12.8 3.2 -11.9481
648 3 11.2 14.4 4.8 -11.5817
649 3 12.8 12.8 3.2 -11.5813
650 2 14.4 14.4 4.8 -10.0011
651 2 16 12.8 3.2 -9.9609
652 3 17.6 14.4 4.8 -11.6021
653 2 19.2 12.8 3.2 -10.0429
654 3 20.8 14.4 4.8 -11.4126
655 3 22.4 12.8 3.2 -11.6283
656 3 24 14.4 4.8 -11.6034
657 3 25.6 12.8 3.2 -11.646
658 3 27.2 14.4 4.8 -11.5798
659 3 28.8 12.8 3.2 -11.5803
660 3 30.4 14.4 4.8 -11.5889
661 1 32 12.8 3.2 -11.9119
662 3 33.6 14.4 4.8 -11.4983
663 3 35.2 12.8 3.2 -11.5099
664 3 36.8 14.4 4.8 -11.5051
665 1 38.4 12.8 3.2 -11.9811
666 3 40 14.4 4.8 -11.4962
667 3 41.6 12.8 3.2 -11.5547
668 3 43.2 14.4 4.8 -11.5641
669 2 44.8 12.8 3.2 -9.99573
670 3 46.4 14.4 4.8 -11.6225
671 3 48 12.8 3.2 -11.5772
672 3 49.6 14.4 4.8 -11.5508
673 1 0 16 3.2 -11.9053
674 3 1.6 17.6 4.8 -11.4124
675 2 3.2 16 3.2 -9.93442
676 1 4.8 17.6 4.8 -11.9507
677 3 6.4 16 3.2 -11.648
678 3 8 17.6 4.8 -11.5797
679 3 9.6 16 3.2 -11.5771
680 3 11.2 17.6 4.8 -11.5621
681 3 12.8 16 3.2 -11.4992
682 3 14.4 17.6 4.8 -11.597
683 1 16 16 3.2 -11.9859
684 3 17.6 17.6 4.8 -11.5485
685 3 19.2 16 3.2 -11.5116
686 1 20.8 17.6 4.8 -11.9216
687 3 22.4 16 3.2 -11.4611
688 1 24 17.6 4.8 -11.8822
689 3 25.6 16 3.2 -11.5774
690 3 27.2 17.6 4.8 -11.5535
691 3 28.8 16 3.2 -11.5441
692 3 30.4 17.6 4.8 -11.5416
693 2 32 16 3.2 -9.95291
694 3 33.6 17.6 4.8 -11.6103
695 3 35.2 16 3.2 -11.5805
696 2 36.8 17.6 4.8 -9.97837
697 3 38.4 16 3.2 -11.4632
698 3 40 17.6 4.8 -11.4841
699 1 41.6 16 3.2 -11.9808
700 3 43.2 17.6 4.8 -11.5188
701 1 44.8 16 3.2 -11.9513
702 3 46.4 17.6 4.8 -11.5537
703 2 48 16 3.2 -9.93179
704 3 49.6 17.6 4.8 -11.3642
705 1 0 19.2 3.2 -11.9348
706 3 1.6 20.8 4.8 -11.5495
707 2 3.2 19.2 3.2 -9.98237
708 1 4.8 20.8 4.8 -11.9242
709 3 6.4 19.2 3.2 -11.5408
710 3 8 20.8 4.8 -11.5312
711 1 9.6 19.2 3.2 -11.9476
712 3 11.2 20.8 4.8 -11.5527
713 1 12.8 19.2 3.2 -11.9809
714 3 14.4 20.8 4.8 -11.5104
715 3 16 19.2 3.2 -11.5483
716 1 17.6 20.8 4.8 -11.9709
717 3 19.2 19.2 3.2 -11.5822
718 3 20.8 20.8 4.8 -11.4189
719 3 22.4 19.2 3.2 -11.4584
720 2 24 20.8 4.8 -9.97953
721 3 25.6 19.2 3.2 -11.5497
722 2 27.2 20.8 4.8 -10.0005
723 3 28.8 19.2 3.2 -11.5911
724 1 30.4 20.8 4.8 -11.9192
725 3 32 19.2 3.2 -11.6475
726 3 33.6 20.8 4.8 -11.5537
727 3 35.2 19.2 3.2 -11.5879
728 1 36.8 20.8 4.8 -11.9373
729 3 38.4 19.2 3.2 -11.5051
730 1 40 20.8 4.8 -11.949
731 3 41.6 19.2 3.2 -11.541
732 1 43.2 20.8 4.8 -11.952
733 2 44.8 19.2 3.2 -9.99325
734 3 46.4 20.8 4.8 -11.565
735 1 48 19.2 3.2 -11.9614
736 3 49.6 20.8 4.8 -11.5486
737 3 0 22.4 3.2 -11.5919
738 3 1.6 24 4.8 -11.6315
739 2 3.2 22.4 3.2 -10.0066
740 1 4.8 24 4.8 -11.9091
741 3 6.4 22.4 3.2 -11.543
742 2 8 24 4.8 -10.0445
743 3 9.6 22.4 3.2 -11.5673
744 3 11.2 24 4.8 -11.5559
745 1 12.8 22.4 3.2 -11.9845
746 3 14.4 24 4.8 -11.5804
747 3 16 22.4 3.2 -11.5819
748 3 17.6 24 4.8 -11.5413
749 2 19.2 22.4 3.2 -10.0049
750 2 20.8 24 4.8 -10.0064
751 1 22.4 22.4 3.2 -11.9188
752 3 24 24 4.8 -11.4818
753 1 25.6 22.4 3.2 -11.9366
754 3 27.2 24 4.8 -11.5993
755 1 28.8 22.4 3.2 -11.8973
756 2 30.4 24 4.8 -9.95423
757 3 32 22.4 3.2 -11.5189
758 2 33.6 24 4.8 -10.0065
759 3 35.2 22.4 3.2 -11.5659
760 3 36.8 24 4.8 -11.5405
761 3 38.4 22.4 3.2 -11.5832
762 3 40 24 4.8 -11.5678
763 3 41.6 22.4 3.2 -11.5652
764 3 43.2 24 4.8 -11.5765
765 3 44.8 22.4 3.2 -11.5792
766 3 46.4 24 4.8 -11.6975
767 3 48 22.4 3.2 -11.6149
768 3 49.6 24 4.8 -11.6382
769 3 0 25.6 3.2 -11.6146
771 3 3.2 25.6 3.2 -11.5554
773 3 6.4 25.6 3.2 -11.6111
775 3 9.6 25.6 3.2 -11.5674
777 1 12.8 25.6 3.2 -11.9857
779 3 16 25.6 3.2 -11.5441
781 2 19.2 25.6 3.2 -10.0237
783 3 22.4 25.6 3.2 -11.4923
785 3 25.6 25.6 3.2 -11.5664
787 3 28.8 25.6 3.2 -11.4862
789 1 32 25.6 3.2 -11.9274
791 1 35.2 25.6 3.2 -11.9425
793 2 38.4 25.6 3.2 -10.024
795 3 41.6 25.6 3.2 -11.5552
797 3 44.8 25.6 3.2 -11.6775
799 3 48 25.6 3.2 -11.6774
770 3 1.6 27.2 4.8 -11.5486
801 1 0 28.8 3.2 -11.9798
772 3 4.8 27.2 4.8 -11.5185
803 1 3.2 28.8 3.2 -11.9714
774 3 8 27.2 4.8 -11.5645
805 2 6.4 28.8 3.2 -9.95191
776 3 11.2 27.2 4.8 -11.4894
807 1 9.6 28.8 3.2 -11.9398
778 3 14.4 27.2 4.8 -11.5594
809 1 12.8 28.8 3.2 -11.9005
780 3 17.6 27.2 4.8 -11.5813
811 1 16 28.8 3.2 -11.9808
782 1 20.8 27.2 4.8 -11.9854
813 3 19.2 28.8 3.2 -11.5238
784 1 24 27.2 4.8 -11.9259
815 3 22.4 28.8 3.2 -11.6061
817 3 25.6 28.8 3.2 -11.6096
786 3 27.2 27.2 4.8 -11.5797
819 3 28.8 28.8 3.2 -11.6223
788 3 30.4 27.2 4.8 -11.5642
821 3 32 28.8 3.2 -11.5
790 3 33.6 27.2 4.8 -11.509
823 3 35.2 28.8 3.2 -11.5681
792 3 36.8 27.2 4.8 -11.5507
825 3 38.4 28.8 3.2 -11.5151
794 1 40 27.2 4.8 -11.9308
827 3 41.6 28.8 3.2 -11.5526
796 1 43.2 27.2 4.8 -11.957
829 3 44.8 28.8 3.2 -11.579
798 3 46.4 27.2 4.8 -11.5437
831 3 48 28.8 3.2 -11.5916
800 3 49.6 27.2 4.8 -11.6464
802 3 1.6 30.4 4.8 -11.5065
833 3 0 32 3.2 -11.4919
804 3 4.8 30.4 4.8 -11.5702
835 3 3.2 32 3.2 -11.5915
806 3 8 30.4 4.8 -11.543
837 3 6.4 32 3.2 -11.6408
808 3 11.2 30.4 4.8 -11.5492
839 3 9.6 32 3.2 -11.5443
810 3 14.4 30.4 4.8 -11.537
841 3 12.8 32 3.2 -11.6155
812 3 17.6 30.4 4.8 -11.6203
843 3 16 32 3.2 -11.5447
814 3 20.8 30.4 4.8 -11.5923
845 3 19.2 32 3.2 -11.5487
816 3 24 30.4 4.8 -11.5875
847 3 22.4 32 3.2 -11.5932
849 3 25.6 32 3.2 -11.6128
818 3 27.2 30.4 4.8 -11.5906
851 3 28.8 32 3.2 -11.5792
820 3 30.4 30.4 4.8 -11.5069
853 1 32 32 3.2 -11.9534
822 3 33.6 30.4 4.8 -11.4891
855 1 35.2 32 3.2 -11.8916
824 3 36.8 30.4 4.8 -11.5023
857 1 38.4 32 3.2 -11.9315
826 3 40 30.4 4.8 -11.4946
859 3 41.6 32 3.2 -11.5846
828 1 43.2 30.4 4.8 -11.9514
861 3 44.8 32 3.2 -11.4959
830 1 46.4 30.4 4.8 -11.9573
863 3 48 32 3.2 -11.4896
832 3 49.6 30.4 4.8 -11.4948
834 2 1.6 33.6 4.8 -9.98565
865 3 0 35.2 3.2 -11.5067
836 3 4.8 33.6 4.8 -11.5615
867 3 3.2 35.2 3.2 -11.4987
838 3 8 33.6 4.8 -11.5239
869 3 6.4 35.2 3.2 -11.5228
840 3 11.2 33.6 4.8 -11.5351
871 1 9.6 35.2 3.2 -11.9841
842 1 14.4 33.6 4.8 -11.9857
873 3 12.8 35.2 3.2 -11.5241
844 2 17.6 33.6 4.8 -9.97828
875 2 16 35.2 3.2 -10.0254
846 2 20.8 33.6 4.8 -9.99389
877 3 19.2 35.2 3.2 -11.4814
848 2 24 33.6 4.8 -9.93172
879 2 22.4 35.2 3.2 -9.97635
881 2 25.6 35.2 3.2 -10.0448
850 1 27.2 33.6 4.8 -11.9992
883 3 28.8 35.2 3.2 -11.5606
852 3 30.4 33.6 4.8 -11.4945
885 3 32 35.2 3.2 -11.511
854 3 33.6 33.6 4.8 -11.479
887 3 35.2 35.2 3.2 -11.5563
856 3 36.8 33.6 4.8 -11.522
889 3 38.4 35.2 3.2 -11.6025
858 3 40 33.6 4.8 -11.5805
891 3 41.6 35.2 3.2 -11.5817
860 3 43.2 33.6 4.8 -11.4399
893 3 44.8 35.2 3.2 -11.5625
862 1 46.4 33.6 4.8 -11.9443
895 3 48 35.2 3.2 -11.4785
864 1 49.6 33.6 4.8 -11.8918
866 3 1.6 36.8 4.8 -11.5801
897 3 0 38.4 3.2 -11.6147
868 3 4.8 36.8 4.8 -11.5802
899 3 3.2 38.4 3.2 -11.5656
870 3 8 36.8 4.8 -11.6376
901 3 6.4 38.4 3.2 -11.6038
872 3 11.2 36.8 4.8 -11.6459
903 3 9.6 38.4 3.2 -11.5108
874 3 14.4 36.8 4.8 -11.5354
905 3 12.8 38.4 3.2 -11.5773
876 3 17.6 36.8 4.8 -11.5172
907 1 16 38.4 3.2 -11.9603
878 2 20.8 36.8 4.8 -10.0028
909 1 19.2 38.4 3.2 -11.9621
880 3 24 36.8 4.8 -11.5191
911 1 22.4 38.4 3.2 -11.9513
913 3 25.6 38.4 3.2 -11.6089
882 3 27.2 36.8 4.8 -11.5673
915 3 28.8 38.4 3.2 -11.6518
884 1 30.4 36.8 4.8 -11.9809
917 3 32 38.4 3.2 -11.536
886 1 33.6 36.8 4.8 -11.9216
919 2 35.2 38.4 3.2 -10.0242
888 3 36.8 36.8 4.8 -11.4995
921 3 38.4 38.4 3.2 -11.656
890 1 40 36.8 4.8 -11.9799
923 3 41.6 38.4 3.2 -11.58
892 1 43.2 36.8 4.8 -11.9804
925 3 44.8 38.4 3.2 -11.6145
894 3 46.4 36.8 4.8 -11.5107
927 1 48 38.4 3.2 -12.0151
896 3 49.6 36.8 4.8 -11.5665
898 3 1.6 40 4.8 -11.5916
929 3 0 41.6 3.2 -11.6093
900 3 4.8 40 4.8 -11.5402
931 1 3.2 41.6 3.2 -11.9069
902 3 8 40 4.8 -11.5655
933 1 6.4 41.6 3.2 -11.9112
904 3 11.2 40 4.8 -11.5657
935 1 9.6 41.6 3.2 -11.9273
906 3 14.4 40 4.8 -11.5381
937 1 12.8 41.6 3.2 -11.9489
908 3 17.6 40 4.8 -11.5124
939 1 16 41.6 3.2 -11.9272
910 3 20.8 40 4.8 -11.5407
941 3 19.2 41.6 3.2 -11.5443
912 3 24 40 4.8 -11.5905
943 2 22.4 41.6 3.2 -10.0068
945 3 25.6 41.6 3.2 -11.5956
914 3 27.2 40 4.8 -11.6458
947 3 28.8 41.6 3.2 -11.569
916 3 30.4 40 4.8 -11.4781
949 3 32 41.6 3.2 -11.5854
918 1 33.6 40 4.8 -11.9576
951 3 35.2 41.6 3.2 -11.592
920 3 36.8 40 4.8 -11.6314
953 3 38.4 41.6 3.2 -11.6389
922 3 40 40 4.8 -11.5799
955 1 41.6 41.6 3.2 -11.9845
924 3 43.2 40 4.8 -11.5799
957 3 44.8 41.6 3.2 -11.6394
926 3 46.4 40 4.8 -11.606
959 3 48 41.6 3.2 -11.4994
928 3 49.6 40 4.8 -11.5639
930 3 1.6 43.2 4.8 -11.5817
961 3 0 44.8 3.2 -11.5211
932 3 4.8 43.2 4.8 -11.5571
963 1 3.2 44.8 3.2 -11.9385
934 3 8 43.2 4.8 -11.533
965 2 6.4 44.8 3.2 -9.87967
936 3 11.2 43.2 4.8 -11.4587
967 1 9.6 44.8 3.2 -11.9723
938 3 14.4 43.2 4.8 -11.4505
969 1 12.8 44.8 3.2 -11.9487
940 2 17.6 43.2 4.8 -10.0238
971 1 16 44.8 3.2 -11.9009
942 3 20.8 43.2 4.8 -11.5804
973 3 19.2 44.8 3.2 -11.4732
944 3 24 43.2 4.8 -11.6207
975 1 22.4 44.8 3.2 -11.9757
977 1 25.6 44.8 3.2 -11.9719
946 3 27.2 43.2 4.8 -11.5734
979 2 28.8 44.8 3.2 -9.88993
948 3 30.4 43.2 4.8 -11.5635
981 1 32 44.8 3.2 -11.9348
950 3 33.6 43.2 4.8 -11.5102
983 1 35.2 44.8 3.2 -11.9799
952 3 36.8 43.2 4.8 -11.6776
985 3 38.4 44.8 3.2 -11.631
954 3 40 43.2 4.8 -11.6459
987 3 41.6 44.8 3.2 -11.4999
956 3 43.2 43.2 4.8 -11.6051
989 3 44.8 44.8 3.2 -11.5771
958 3 46.4 43.2 4.8 -11.5301
991 1 48 44.8 3.2 -11.9459
960 2 49.6 43.2 4.8 -10.0006
962 3 1.6 46.4 4.8 -11.542
993 3 0 48 3.2 -11.5345
964 3 4.8 46.4 4.8 -11.4808
995 1 3.2 48 3.2 -11.9213
966 3 8 46.4 4.8 -11.5379
997 1 6.4 48 3.2 -11.9869
968 3 11.2 46.4 4.8 -11.5805
999 3 9.6 48 3.2 -11.5485
970 3 14.4 46.4 4.8 -11.5802
1001 3 12.8 48 3.2 -11.5799
972 3 17.6 46.4 4.8 -11.6346
1003 3 16 48 3.2 -11.558
974 3 20.8 46.4 4.8 -11.5922
1005 3 19.2 48 3.2 -11.6223
976 3 24 46.4 4.8 -11.58
1007 3 22.4 48 3.2 -11.5674
1009 3 25.6 48 3.2 -11.5772
978 3 27.2 46.4 4.8 -11.5391
1011 1 28.8 48 3.2 -11.971
980 3 30.4 46.4 4.8 -11.4699
1013 1 32 48 3.2 -11.8759
982 3 33.6 46.4 4.8 -11.5486
1015 1 35.2 48 3.2 -11.9495
984 3 36.8 46.4 4.8 -11.6055
1017 3 38.4 48 3.2 -11.488
986 3 40 46.4 4.8 -11.5267
1019 1 41.6 48 3.2 -11.9411
988 3 43.2 46.4 4.8 -11.5884
1021 3 44.8 48 3.2 -11.6175
990 3 46.4 46.4 4.8 -11.563
1023 3 48 48 3.2 -11.5484
992 2 49.6 46.4 4.8 -9.98203
994 3 1.6 49.6 4.8 -11.5923
996 3 4.8 49.6 4.8 -11.5653
998 3 8 49.6 4.8 -11.6313
1000 3 11.2 49.6 4.8 -11.6146
1002 3 14.4 49.6 4.8 -11.6231
1004 3 17.6 49.6 4.8 -11.5485
1006 3 20.8 49.6 4.8 -11.6064
1008 3 24 49.6 4.8 -11.6049
1010 3 27.2 49.6 4.8 -11.5657
1012 3 30.4 49.6 4.8 -11.552
1014 3 33.6 49.6 4.8 -11.5482
1016 3 36.8 49.6 4.8 -11.5817
1018 2 40 49.6 4.8 -9.99707
1020 3 43.2 49.6 4.8 -11.6092
1022 3 46.4 49.6 4.8 -11.5572
1024 1 49.6 49.6 4.8 -11.9769
1025 3 0 0 6.4 -11.4953
1026 3 1.6 1.6 8 -11.4903
1027 3 3.2 0 6.4 -11.6236
1028 1 4.8 1.6 8 -11.9624
1029 3 6.4 0 6.4 -11.5554
1030 3 8 1.6 8 -11.5107
1031 1 9.6 0 6.4 -12.0147
1032 3 11.2 1.6 8 -11.5802
1033 3 12.8 0 6.4 -11.5762
1034 3 14.4 1.6 8 -11.5486
1035 1 16 0 6.4 -11.9799
1036 3 17.6 1.6 8 -11.5378
1037 1 19.2 0 6.4 -11.9481
1038 3 20.8 1.6 8 -11.6241
1039 3 22.4 0 6.4 -11.5242
1040 3 24 1.6 8 -11.5923
1041 2 25.6 0 6.4 -10.0706
1042 3 27.2 1.6 8 -11.5221
1043 3 28.8 0 6.4 -11.5925
1044 3 30.4 1.6 8 -11.6373
1045 3 32 0 6.4 -11.5769
1046 3 33.6 1.6 8 -11.5656
1047 3 35.2 0 6.4 -11.5766
1048 3 36.8 1.6 8 -11.5924
1049 3 38.4 0 6.4 -11.5908
1050 2 40 1.6 8 -10.0245
1051 3 41.6 0 6.4 -11.5912
1052 3 43.2 1.6 8 -11.5825
1053 3 44.8 0 6.4 -11.5688
1054 3 46.4 1.6 8 -11.4916
1055 2 48 0 6.4 -10.0187
1056 2 49.6 1.6 8 -9.98943
1057 1 0 3.2 6.4 -11.9611
1058 3 1.6 4.8 8 -11.5664
1059 2 3.2 3.2 6.4 -10.0427
1060 3 4.8 4.8 8 -11.5673
1061 3 6.4 3.2 6.4 -11.592
1062 3 8 4.8 8 -11.6338
1063 1 9.6 3.2 6.4 -11.9841
1064 3 11.2 4.8 8 -11.5664
1065 3 12.8 3.2 6.4 -11.6034
1066 1 14.4 4.8 8 -11.9015
1067 3 16 3.2 6.4 -11.5185
1068 1 17.6 4.8 8 -11.9041
1069 3 19.2 3.2 6.4 -11.5664
1070 2 20.8 4.8 8 -9.93438
1071 3 22.4 3.2 6.4 -11.6476
1072 3 24 4.8 8 -11.4963
1073 2 25.6 3.2 6.4 -9.94568
1074 2 27.2 4.8 8 -9.96031
1075 3 28.8 3.2 6.4 -11.5388
1076 3 30.4 4.8 8 -11.5419
1077 3 32 3.2 6.4 -11.6234
1078 1 33.6 4.8 8 -11.9266
1079 3 35.2 3.2 6.4 -11.5492
1080 1 36.8 4.8 8 -11.9396
1081 3 38.4 3.2 6.4 -11.5126
1082 2 40 4.8 8 -9.97487
1083 3 41.6 3.2 6.4 -11.4994
1084 3 43.2 4.8 8 -11.435
1085 3 44.8 3.2 6.4 -11.5103
1086 3 46.4 4.8 8 -11.5659
1087 3 48 3.2 6.4 -11.5235
1088 3 49.6 4.8 8 -11.5554
1089 3 0 6.4 6.4 -11.5797
1090 1 1.6 8 8 -11.985
1091 3 3.2 6.4 6.4 -11.6235
1092 1 4.8 8 8 -11.9791
1093 3 6.4 6.4 6.4 -11.605
1094 3 8 8 8 -11.49
1095 1 9.6 6.4 6.4 -11.9521
1096 3 11.2 8 8 -11.5187
1097 3 12.8 6.4 6.4 -11.5187
1098 1 14.4 8 8 -11.9357
1099 3 16 6.4 6.4 -11.4157
1100 2 17.6 8 8 -9.94411
1101 3 19.2 6.4 6.4 -11.4877
1102 1 20.8 8 8 -11.9047
1103 3 22.4 6.4 6.4 -11.5679