ITEM: TIMESTEP
0
ITEM: NUMBER OF ATOMS
8192
ITEM: BOX BOUNDS pp pp pp
0.0000000000000000e+00 5.1200000000000003e+01
0.0000000000000000e+00 5.1200000000000003e+01
0.0000000000000000e+00 5.1200000000000003e+01
ITEM: ATOMS id type x y z c_eng
1 3 0 0 0 -11.2287
2 1 1.6 1.6 1.6 -11.8266
3 2 3.2 0 0 -9.88935
4 3 4.8 1.6 1.6 -11.4051
5 1 6.4 0 0 -11.8404
6 3 8 1.6 1.6 -11.2045
7 1 9.6 0 0 -11.817
8 2 11.2 1.6 1.6 -9.80598
9 2 12.8 0 0 -9.88225
10 2 14.4 1.6 1.6 -9.87262
11 2 16 0 0 -9.87083
12 3 17.6 1.6 1.6 -11.2581
13 1 19.2 0 0 -11.8063
14 2 20.8 1.6 1.6 -9.88036
15 1 22.4 0 0 -11.8141
16 3 24 1.6 1.6 -11.2874
17 1 25.6 0 0 -11.78
18 3 27.2 1.6 1.6 -11.206
19 1 28.8 0 0 -11.7726
20 3 30.4 1.6 1.6 -11.3223
21 3 32 0 0 -11.3385
22 2 33.6 1.6 1.6 -9.86618
23 3 35.2 0 0 -11.227
24 2 36.8 1.6 1.6 -9.85591
25 2 38.4 0 0 -9.75833
26 2 40 1.6 1.6 -9.82409
27 3 41.6 0 0 -11.3357
28 1 43.2 1.6 1.6 -11.7926
29 3 44.8 0 0 -11.3307
30 1 46.4 1.6 1.6 -11.8411
31 3 48 0 0 -11.3622
32 1 49.6 1.6 1.6 -11.8784
33 3 0 3.2 0 -11.242
34 1 1.6 4.8 1.6 -11.8773
35 3 3.2 3.2 0 -11.4504
36 3 4.8 4.8 1.6 -11.4955
37 1 6.4 3.2 0 -11.8853
38 3 8 4.8 1.6 -11.4295
39 1 9.6 3.2 0 -11.8216
40 3 11.2 4.8 1.6 -11.4483
41 1 12.8 3.2 0 -11.8457
42 3 14.4 4.8 1.6 -11.3192
43 1 16 3.2 0 -11.8506
44 3 17.6 4.8 1.6 -11.3291
45 1 19.2 3.2 0 -11.8446
46 3 20.8 4.8 1.6 -11.3965
47 2 22.4 3.2 0 -9.91511
48 3 24 4.8 1.6 -11.3622
49 1 25.6 3.2 0 -11.7881
50 3 27.2 4.8 1.6 -11.2054
51 1 28.8 3.2 0 -11.75
52 3 30.4 4.8 1.6 -11.2402
53 2 32 3.2 0 -9.8015
54 2 33.6 4.8 1.6 -9.76173
55 2 35.2 3.2 0 -9.81871
56 2 36.8 4.8 1.6 -9.89001
57 1 38.4 3.2 0 -11.6911
58 3 40 4.8 1.6 -11.3353
59 2 41.6 3.2 0 -9.70474
60 1 43.2 4.8 1.6 -11.7664
61 3 44.8 3.2 0 -11.2048
62 1 46.4 4.8 1.6 -11.8415
63 3 48 3.2 0 -11.2414
64 1 49.6 4.8 1.6 -11.8417
65 3 0 6.4 0 -11.242
66 1 1.6 8 1.6 -11.8775
67 3 3.2 6.4 0 -11.4613
68 1 4.8 8 1.6 -11.9165
69 3 6.4 6.4 0 -11.464
70 1 8 8 1.6 -11.8522
71 3 9.6 6.4 0 -11.4291
72 1 11.2 8 1.6 -11.8773
73 3 12.8 6.4 0 -11.391
74 1 14.4 8 1.6 -11.7728
75 1 16 6.4 0 -11.6998
76 2 17.6 8 1.6 -9.74426
77 1 19.2 6.4 0 -11.7019
78 1 20.8 8 1.6 -11.8256
79 2 22.4 6.4 0 -9.91534
80 2 24 8 1.6 -9.86851
81 1 25.6 6.4 0 -11.8037
82 3 27.2 8 1.6 -11.2051
83 1 28.8 6.4 0 -11.802
84 3 30.4 8 1.6 -11.1642
85 1 32 6.4 0 -11.7595
86 2 33.6 8 1.6 -9.83507
87 2 35.2 6.4 0 -9.87087
88 1 36.8 8 1.6 -11.7733
89 3 38.4 6.4 0 -11.347
90 2 40 8 1.6 -9.89439
91 3 41.6 6.4 0 -11.3597
92 1 43.2 8 1.6 -11.8672
93 3 44.8 6.4 0 -11.242
94 1 46.4 8 1.6 -11.8379
95 3 48 6.4 0 -11.2033
96 1 49.6 8 1.6 -11.8119
97 3 0 9.6 0 -11.2036
98 1 1.6 11.2 1.6 -11.8136
99 3 3.2 9.6 0 -11.3386
100 1 4.8 11.2 1.6 -11.8534
101 3 6.4 9.6 0 -11.3389
102 1 8 11.2 1.6 -11.8678
103 3 9.6 9.6 0 -11.2036
104 1 11.2 11.2 1.6 -11.8122
105 3 12.8 9.6 0 -11.2048
106 1 14.4 11.2 1.6 -11.7828
107 2 16 9.6 0 -9.72189
108 1 17.6 11.2 1.6 -11.8423
109 3 19.2 9.6 0 -11.1636
110 1 20.8 11.2 1.6 -11.8411
111 3 22.4 9.6 0 -11.2637
112 2 24 11.2 1.6 -9.83898
113 1 25.6 9.6 0 -11.7355
114 3 27.2 11.2 1.6 -11.1651
115 1 28.8 9.6 0 -11.8304
116 3 30.4 11.2 1.6 -11.2432
117 1 32 9.6 0 -11.8319
118 3 33.6 11.2 1.6 -11.3486
119 3 35.2 9.6 0 -11.4157
120 3 36.8 11.2 1.6 -11.3633
121 3 38.4 9.6 0 -11.3308
122 2 40 11.2 1.6 -9.94365
123 3 41.6 9.6 0 -11.3315
124 1 43.2 11.2 1.6 -11.87
125 3 44.8 9.6 0 -11.2036
126 1 46.4 11.2 1.6 -11.812
127 2 48 9.6 0 -9.735
128 1 49.6 11.2 1.6 -11.7828
129 3 0 12.8 0 -11.2042
130 1 1.6 14.4 1.6 -11.8133
131 3 3.2 12.8 0 -11.2036
132 1 4.8 14.4 1.6 -11.8366
133 3 6.4 12.8 0 -11.2417
134 1 8 14.4 1.6 -11.8411
135 3 9.6 12.8 0 -11.242
136 1 11.2 14.4 1.6 -11.8124
137 3 12.8 12.8 0 -11.2036
138 1 14.4 14.4 1.6 -11.8124
139 3 16 12.8 0 -11.2036
140 1 17.6 14.4 1.6 -11.8417
141 3 19.2 12.8 0 -11.2045
142 1 20.8 14.4 1.6 -11.7382
143 2 22.4 12.8 0 -9.78829
144 3 24 14.4 1.6 -11.2538
145 1 25.6 12.8 0 -11.7185
146 3 27.2 14.4 1.6 -11.2715
147 1 28.8 12.8 0 -11.8018
148 3 30.4 14.4 1.6 -11.3043
149 1 32 12.8 0 -11.8399
150 2 33.6 14.4 1.6 -9.83997
151 2 35.2 12.8 0 -9.88121
152 3 36.8 14.4 1.6 -11.3319
153 2 38.4 12.8 0 -9.9179
154 3 40 14.4 1.6 -11.407
155 2 41.6 12.8 0 -9.90233
156 2 43.2 14.4 1.6 -9.86897
157 3 44.8 12.8 0 -11.3023
158 1 46.4 14.4 1.6 -11.8588
159 3 48 12.8 0 -11.2039
160 1 49.6 14.4 1.6 -11.82
161 3 0 16 0 -11.4288
162 2 1.6 17.6 1.6 -9.9148
163 3 3.2 16 0 -11.4137
164 2 4.8 17.6 1.6 -9.85682
165 3 6.4 16 0 -11.3351
166 1 8 17.6 1.6 -11.8205
167 3 9.6 16 0 -11.2417
168 1 11.2 17.6 1.6 -11.8413
169 3 12.8 16 0 -11.2417
170 1 14.4 17.6 1.6 -11.8417
171 3 16 16 0 -11.2414
172 1 17.6 17.6 1.6 -11.8417
173 3 19.2 16 0 -11.1232
174 1 20.8 17.6 1.6 -11.6925
175 1 22.4 16 0 -11.6092
176 2 24 17.6 1.6 -9.79068
177 1 25.6 16 0 -11.7696
178 3 27.2 17.6 1.6 -11.2333
179 1 28.8 16 0 -11.7844
180 3 30.4 17.6 1.6 -11.3713
181 2 32 16 0 -9.72437
182 3 33.6 17.6 1.6 -11.352
183 1 35.2 16 0 -11.7894
184 3 36.8 17.6 1.6 -11.4123
185 1 38.4 16 0 -11.8406
186 3 40 17.6 1.6 -11.3302
187 1 41.6 16 0 -11.8191
188 2 43.2 17.6 1.6 -9.84598
189 2 44.8 16 0 -9.89623
190 3 46.4 17.6 1.6 -11.3402
191 3 48 16 0 -11.4291
192 3 49.6 17.6 1.6 -11.429
193 1 0 19.2 0 -11.8531
194 3 1.6 20.8 1.6 -11.2036
195 1 3.2 19.2 0 -11.833
196 3 4.8 20.8 1.6 -11.2399
197 2 6.4 19.2 0 -9.79678
198 2 8 20.8 1.6 -9.8452
199 3 9.6 19.2 0 -11.3032
200 1 11.2 20.8 1.6 -11.8415
201 3 12.8 19.2 0 -11.2039
202 1 14.4 20.8 1.6 -11.7808
203 3 16 19.2 0 -11.2036
204 1 17.6 20.8 1.6 -11.8124
205 3 19.2 19.2 0 -11.2051
206 1 20.8 20.8 1.6 -11.8028
207 2 22.4 19.2 0 -9.77958
208 3 24 20.8 1.6 -11.2769
209 1 25.6 19.2 0 -11.7882
210 2 27.2 20.8 1.6 -9.85672
211 1 28.8 19.2 0 -11.7558
212 2 30.4 20.8 1.6 -9.88255
213 3 32 19.2 0 -11.2723
214 1 33.6 20.8 1.6 -11.8763
215 2 35.2 19.2 0 -9.81207
216 2 36.8 20.8 1.6 -9.9137
217 1 38.4 19.2 0 -11.8523
218 3 40 20.8 1.6 -11.3985
219 1 41.6 19.2 0 -11.8133
220 2 43.2 20.8 1.6 -9.83019
221 1 44.8 19.2 0 -11.7844
222 3 46.4 20.8 1.6 -11.1648
223 1 48 19.2 0 -11.8531
224 3 49.6 20.8 1.6 -11.242
225 1 0 22.4 0 -11.8417
226 3 1.6 24 1.6 -11.2414
227 1 3.2 22.4 0 -11.8412
228 3 4.8 24 1.6 -11.3618
229 1 6.4 22.4 0 -11.8328
230 2 8 24 1.6 -9.92115
231 2 9.6 22.4 0 -9.90897
232 2 11.2 24 1.6 -9.83765
233 2 12.8 22.4 0 -9.8051
234 1 14.4 24 1.6 -11.8099
235 2 16 22.4 0 -9.7066
236 1 17.6 24 1.6 -11.8122
237 3 19.2 22.4 0 -11.1652
238 1 20.8 24 1.6 -11.8533
239 2 22.4 22.4 0 -9.86039
240 3 24 24 1.6 -11.3868
241 1 25.6 22.4 0 -11.7696
242 3 27.2 24 1.6 -11.3876
243 3 28.8 22.4 0 -11.3245
244 1 30.4 24 1.6 -11.8812
245 3 32 22.4 0 -11.2721
246 1 33.6 24 1.6 -11.8408
247 2 35.2 22.4 0 -9.8601
248 2 36.8 24 1.6 -9.89771
249 1 38.4 22.4 0 -11.83
250 3 40 24 1.6 -11.354
251 1 41.6 22.4 0 -11.8539
252 3 43.2 24 1.6 -11.2686
253 1 44.8 22.4 0 -11.784
254 2 46.4 24 1.6 -9.73511
255 1 48 22.4 0 -11.8124
256 3 49.6 24 1.6 -11.2033
257 1 0 25.6 0 -11.8417
259 1 3.2 25.6 0 -11.8778
261 3 6.4 25.6 0 -11.4198
263 2 9.6 25.6 0 -9.90244
265 3 12.8 25.6 0 -11.3014
267 3 16 25.6 0 -11.2707
269 3 19.2 25.6 0 -11.3656
271 3 22.4 25.6 0 -11.429
273 2 25.6 25.6 0 -9.89986
275 3 28.8 25.6 0 -11.3876
277 3 32 25.6 0 -11.2386
279 2 35.2 25.6 0 -9.89867
281 1 38.4 25.6 0 -11.8158
283 1 41.6 25.6 0 -11.78
285 1 44.8 25.6 0 -11.7846
287 1 48 25.6 0 -11.812
258 3 1.6 27.2 1.6 -11.2417
289 1 0 28.8 0 -11.8413
260 3 4.8 27.2 1.6 -11.4057
291 1 3.2 28.8 0 -11.8043
262 1 8 27.2 1.6 -11.7972
293 3 6.4 28.8 0 -11.2435
264 1 11.2 27.2 1.6 -11.8141
295 3 9.6 28.8 0 -11.1657
266 1 14.4 27.2 1.6 -11.8116
297 3 12.8 28.8 0 -11.2429
268 1 17.6 27.2 1.6 -11.8776
299 3 16 28.8 0 -11.3844
270 1 20.8 27.2 1.6 -11.908
301 3 19.2 28.8 0 -11.3336
272 3 24 27.2 1.6 -11.4825
303 2 22.4 28.8 0 -9.90332
305 2 25.6 28.8 0 -9.92234
274 3 27.2 27.2 1.6 -11.4003
307 3 28.8 28.8 0 -11.2942
276 1 30.4 27.2 1.6 -11.8233
309 2 32 28.8 0 -9.78159
278 2 33.6 27.2 1.6 -9.89052
311 2 35.2 28.8 0 -9.80021
280 3 36.8 27.2 1.6 -11.3219
313 1 38.4 28.8 0 -11.842
282 3 40 27.2 1.6 -11.3097
315 2 41.6 28.8 0 -9.86148
284 3 43.2 27.2 1.6 -11.2339
317 2 44.8 28.8 0 -9.79857
286 3 46.4 27.2 1.6 -11.2375
319 1 48 28.8 0 -11.7882
288 3 49.6 27.2 1.6 -11.242
290 3 1.6 30.4 1.6 -11.3346
321 1 0 32 0 -11.8687
292 2 4.8 30.4 1.6 -9.81458
323 2 3.2 32 0 -9.73349
294 1 8 30.4 1.6 -11.7578
325 1 6.4 32 0 -11.6747
296 1 11.2 30.4 1.6 -11.8535
327 3 9.6 32 0 -11.3021
298 1 14.4 30.4 1.6 -11.8454
329 3 12.8 32 0 -11.373
300 3 17.6 30.4 1.6 -11.37
331 2 16 32 0 -9.94011
302 2 20.8 30.4 1.6 -9.8358
333 1 19.2 32 0 -11.6927
304 3 24 30.4 1.6 -11.3383
335 1 22.4 32 0 -11.6507
337 2 25.6 32 0 -9.80517
306 2 27.2 30.4 1.6 -9.89085
339 3 28.8 32 0 -11.2647
308 1 30.4 30.4 1.6 -11.7571
341 2 32 32 0 -9.75566
310 2 33.6 30.4 1.6 -9.78343
343 1 35.2 32 0 -11.6434
312 2 36.8 30.4 1.6 -9.71893
345 1 38.4 32 0 -11.7798
314 3 40 30.4 1.6 -11.2979
347 2 41.6 32 0 -9.90533
316 2 43.2 30.4 1.6 -9.85945
349 3 44.8 32 0 -11.2311
318 2 46.4 30.4 1.6 -9.83884
351 2 48 32 0 -9.83749
320 3 49.6 30.4 1.6 -11.2746
322 3 1.6 33.6 1.6 -11.3
353 1 0 35.2 0 -11.8114
324 1 4.8 33.6 1.6 -11.6609
355 1 3.2 35.2 0 -11.7836
326 3 8 33.6 1.6 -11.2691
357 1 6.4 35.2 0 -11.7476
328 3 11.2 33.6 1.6 -11.3557
359 1 9.6 35.2 0 -11.8514
330 3 14.4 33.6 1.6 -11.3097
361 1 12.8 35.2 0 -11.7974
332 3 17.6 33.6 1.6 -11.3303
363 1 16 35.2 0 -11.8414
334 2 20.8 33.6 1.6 -9.80007
365 1 19.2 35.2 0 -11.8134
336 2 24 33.6 1.6 -9.82106
367 2 22.4 35.2 0 -9.89153
369 2 25.6 35.2 0 -9.83897
338 2 27.2 33.6 1.6 -9.84129
371 3 28.8 35.2 0 -11.329
340 1 30.4 33.6 1.6 -11.8435
373 3 32 35.2 0 -11.2384
342 2 33.6 33.6 1.6 -9.81343
375 3 35.2 35.2 0 -11.1919
344 2 36.8 33.6 1.6 -9.78402
377 2 38.4 35.2 0 -9.923
346 3 40 33.6 1.6 -11.4069
379 2 41.6 35.2 0 -9.86256
348 2 43.2 33.6 1.6 -9.84368
381 1 44.8 35.2 0 -11.7404
350 3 46.4 33.6 1.6 -11.2973
383 1 48 35.2 0 -11.7814
352 3 49.6 33.6 1.6 -11.2367
354 3 1.6 36.8 1.6 -11.323
385 1 0 38.4 0 -11.8526
356 2 4.8 36.8 1.6 -9.80824
387 1 3.2 38.4 0 -11.8023
358 3 8 36.8 1.6 -11.3271
389 1 6.4 38.4 0 -11.8137
360 2 11.2 36.8 1.6 -9.80107
391 1 9.6 38.4 0 -11.812
362 3 14.4 36.8 1.6 -11.2045
393 1 12.8 38.4 0 -11.8124
364 3 17.6 36.8 1.6 -11.242
395 1 16 38.4 0 -11.8417
366 3 20.8 36.8 1.6 -11.435
397 1 19.2 38.4 0 -11.8675
368 2 24 36.8 1.6 -9.97882
399 2 22.4 38.4 0 -9.84701
401 1 25.6 38.4 0 -11.8777
370 2 27.2 36.8 1.6 -9.85648
403 2 28.8 38.4 0 -9.87218
372 1 30.4 36.8 1.6 -11.7972
405 2 32 38.4 0 -9.75566
374 1 33.6 36.8 1.6 -11.7967
407 3 35.2 38.4 0 -11.2008
376 1 36.8 36.8 1.6 -11.7929
409 2 38.4 38.4 0 -9.75311
378 3 40 36.8 1.6 -11.3495
411 3 41.6 38.4 0 -11.3489
380 3 43.2 36.8 1.6 -11.3522
413 3 44.8 38.4 0 -11.2925
382 3 46.4 36.8 1.6 -11.3717
415 1 48 38.4 0 -11.8448
384 3 49.6 36.8 1.6 -11.3872
386 2 1.6 40 1.6 -9.89054
417 1 0 41.6 0 -11.8221
388 2 4.8 40 1.6 -9.87627
419 1 3.2 41.6 0 -11.7996
390 3 8 40 1.6 -11.3023
421 1 6.4 41.6 0 -11.841
392 3 11.2 40 1.6 -11.2036
423 1 9.6 41.6 0 -11.8411
394 3 14.4 40 1.6 -11.242
425 1 12.8 41.6 0 -11.8679
396 3 17.6 40 1.6 -11.274
427 1 16 41.6 0 -11.8413
398 3 20.8 40 1.6 -11.4092
429 1 19.2 41.6 0 -11.8676
400 3 24 40 1.6 -11.4522
431 1 22.4 41.6 0 -11.9031
433 1 25.6 41.6 0 -11.8808
402 3 27.2 40 1.6 -11.3789
435 2 28.8 41.6 0 -9.87435
404 1 30.4 40 1.6 -11.8324
437 3 32 41.6 0 -11.3727
406 1 33.6 40 1.6 -11.8677
439 3 35.2 41.6 0 -11.3916
408 1 36.8 40 1.6 -11.8083
441 3 38.4 41.6 0 -11.2042
410 1 40 40 1.6 -11.8387
443 3 41.6 41.6 0 -11.3628
412 3 43.2 40 1.6 -11.3814
445 2 44.8 41.6 0 -9.92436
414 2 46.4 40 1.6 -9.94609
447 2 48 41.6 0 -9.83705
416 3 49.6 40 1.6 -11.4616
418 2 1.6 43.2 1.6 -9.78464
449 1 0 44.8 0 -11.7244
420 3 4.8 43.2 1.6 -11.3159
451 1 3.2 44.8 0 -11.8124
422 3 8 43.2 1.6 -11.3351
453 1 6.4 44.8 0 -11.8673
424 3 11.2 43.2 1.6 -11.3083
455 1 9.6 44.8 0 -11.87
426 3 14.4 43.2 1.6 -11.3083
457 2 12.8 44.8 0 -9.83136
428 3 17.6 43.2 1.6 -11.3081
459 1 16 44.8 0 -11.7807
430 3 20.8 43.2 1.6 -11.3613
461 1 19.2 44.8 0 -11.8415
432 3 24 43.2 1.6 -11.4101
463 1 22.4 44.8 0 -11.8412
465 1 25.6 44.8 0 -11.8414
434 2 27.2 43.2 1.6 -9.91283
467 1 28.8 44.8 0 -11.8488
436 1 30.4 43.2 1.6 -11.8478
469 3 32 44.8 0 -11.3973
438 1 33.6 43.2 1.6 -11.8775
471 3 35.2 44.8 0 -11.3392
440 1 36.8 43.2 1.6 -11.8115
473 3 38.4 44.8 0 -11.2042
442 1 40 43.2 1.6 -11.7991
475 3 41.6 44.8 0 -11.2343
444 2 43.2 43.2 1.6 -9.8937
477 2 44.8 44.8 0 -9.90525
446 3 46.4 43.2 1.6 -11.3286
479 1 48 44.8 0 -11.855
448 3 49.6 43.2 1.6 -11.2289
450 2 1.6 46.4 1.6 -9.7869
481 2 0 48 0 -9.8849
452 2 4.8 46.4 1.6 -9.89189
483 2 3.2 48 0 -9.882
454 3 8 46.4 1.6 -11.2345
485 1 6.4 48 0 -11.8797
456 3 11.2 46.4 1.6 -11.2983
487 1 9.6 48 0 -11.8452
458 3 14.4 46.4 1.6 -11.2312
489 2 12.8 48 0 -9.80499
460 3 17.6 46.4 1.6 -11.2048
491 1 16 48 0 -11.7045
462 3 20.8 46.4 1.6 -11.2426
493 1 19.2 48 0 -11.8117
464 3 24 46.4 1.6 -11.2743
495 1 22.4 48 0 -11.8415
497 1 25.6 48 0 -11.8415
466 3 27.2 46.4 1.6 -11.332
499 1 28.8 48 0 -11.8527
468 3 30.4 46.4 1.6 -11.3782
501 3 32 48 0 -11.3668
470 1 33.6 46.4 1.6 -11.8776
503 3 35.2 48 0 -11.2432
472 1 36.8 46.4 1.6 -11.8119
505 3 38.4 48 0 -11.2042
474 1 40 46.4 1.6 -11.7559
507 3 41.6 48 0 -11.3314
476 2 43.2 46.4 1.6 -9.87531
509 2 44.8 48 0 -9.94245
478 3 46.4 46.4 1.6 -11.2848
511 2 48 48 0 -9.88804
480 2 49.6 46.4 1.6 -9.83455
482 1 1.6 49.6 1.6 -11.7763
484 2 4.8 49.6 1.6 -9.84281
486 3 8 49.6 1.6 -11.2402
488 3 11.2 49.6 1.6 -11.2923
490 2 14.4 49.6 1.6 -9.90161
492 2 17.6 49.6 1.6 -9.8319
494 3 20.8 49.6 1.6 -11.1989
496 3 24 49.6 1.6 -11.2753
498 3 27.2 49.6 1.6 -11.2045
500 3 30.4 49.6 1.6 -11.4301
502 1 33.6 49.6 1.6 -11.8511
504 1 36.8 49.6 1.6 -11.8311
506 1 40 49.6 1.6 -11.863
508 3 43.2 49.6 1.6 -11.3723
510 2 46.4 49.6 1.6 -9.92836
512 3 49.6 49.6 1.6 -11.2801
513 3 0 0 3.2 -11.2689
514 1 1.6 1.6 4.8 -11.8578
515 2 3.2 0 3.2 -9.83161
516 3 4.8 1.6 4.8 -11.3639
517 1 6.4 0 3.2 -11.7932
518 3 8 1.6 4.8 -11.2363
519 1 9.6 0 3.2 -11.7559
520 2 11.2 1.6 4.8 -9.6908
521 2 12.8 0 3.2 -9.83646
522 2 14.4 1.6 4.8 -9.8509
523 3 16 0 3.2 -11.3264
524 1 17.6 1.6 4.8 -11.7105
525 1 19.2 0 3.2 -11.702
526 1 20.8 1.6 4.8 -11.7264
527 2 22.4 0 3.2 -9.78492
528 1 24 1.6 4.8 -11.7161
529 1 25.6 0 3.2 -11.7632
530 3 27.2 1.6 4.8 -11.2627
531 1 28.8 0 3.2 -11.8364
532 3 30.4 1.6 4.8 -11.3342
533 2 32 0 3.2 -9.91371
534 2 33.6 1.6 4.8 -9.817
535 2 35.2 0 3.2 -9.8548
536 3 36.8 1.6 4.8 -11.3269
537 2 38.4 0 3.2 -9.94874
538 2 40 1.6 4.8 -9.91715
539 3 41.6 0 3.2 -11.3689
540 2 43.2 1.6 4.8 -9.83759
541 2 44.8 0 3.2 -9.89694
542 1 46.4 1.6 4.8 -11.7876
543 3 48 0 3.2 -11.3298
544 1 49.6 1.6 4.8 -11.841
545 3 0 3.2 3.2 -11.2423
546 1 1.6 4.8 4.8 -11.8915
547 3 3.2 3.2 3.2 -11.4202
548 3 4.8 4.8 4.8 -11.4441
549 1 6.4 3.2 3.2 -11.9017
550 3 8 4.8 4.8 -11.3593
551 1 9.6 3.2 3.2 -11.8132
552 3 11.2 4.8 4.8 -11.3711
553 1 12.8 3.2 3.2 -11.7654
554 2 14.4 4.8 4.8 -9.8773
555 1 16 3.2 3.2 -11.7235
556 1 17.6 4.8 4.8 -11.7435
557 2 19.2 3.2 3.2 -9.78423
558 1 20.8 4.8 4.8 -11.853
559 3 22.4 3.2 3.2 -11.3582
560 1 24 4.8 4.8 -11.7674
561 1 25.6 3.2 3.2 -11.7627
562 3 27.2 4.8 4.8 -11.2669
563 1 28.8 3.2 3.2 -11.841
564 3 30.4 4.8 4.8 -11.2426
565 1 32 3.2 3.2 -11.814
566 3 33.6 4.8 4.8 -11.1645
567 1 35.2 3.2 3.2 -11.7907
568 3 36.8 4.8 4.8 -11.3025
569 2 38.4 3.2 3.2 -9.83083
570 2 40 4.8 4.8 -9.91314
571 1 41.6 3.2 3.2 -11.7103
572 1 43.2 4.8 4.8 -11.7622
573 3 44.8 3.2 3.2 -11.1636
574 1 46.4 4.8 4.8 -11.8679
575 3 48 3.2 3.2 -11.2417
576 1 49.6 4.8 4.8 -11.8116
577 3 0 6.4 3.2 -11.3063
578 3 1.6 8 4.8 -11.3542
579 3 3.2 6.4 3.2 -11.51
580 2 4.8 8 4.8 -9.91914
581 2 6.4 6.4 3.2 -9.92443
582 1 8 8 4.8 -11.7242
583 3 9.6 6.4 3.2 -11.421
584 1 11.2 8 4.8 -11.7946
585 3 12.8 6.4 3.2 -11.3977
586 1 14.4 8 4.8 -11.8204
587 2 16 6.4 3.2 -9.8667
588 1 17.6 8 4.8 -11.8126
589 3 19.2 6.4 3.2 -11.3227
590 1 20.8 8 4.8 -11.8668
591 3 22.4 6.4 3.2 -11.4045
592 2 24 8 4.8 -9.87889
593 1 25.6 6.4 3.2 -11.7808
594 3 27.2 8 4.8 -11.2394
595 1 28.8 6.4 3.2 -11.8415
596 3 30.4 8 4.8 -11.2039
597 1 32 6.4 3.2 -11.7803
598 3 33.6 8 4.8 -11.2746
599 1 35.2 6.4 3.2 -11.7661
600 3 36.8 8 4.8 -11.2398
601 2 38.4 6.4 3.2 -9.88239
602 2 40 8 4.8 -9.91229
603 3 41.6 6.4 3.2 -11.3396
604 1 43.2 8 4.8 -11.8681
605 3 44.8 6.4 3.2 -11.3086
606 2 46.4 8 4.8 -9.76978
607 3 48 6.4 3.2 -11.3081
608 1 49.6 8 4.8 -11.7913
609 3 0 9.6 3.2 -11.2625
610 2 1.6 11.2 4.8 -9.89338
611 3 3.2 9.6 3.2 -11.4071
612 3 4.8 11.2 4.8 -11.3703
613 3 6.4 9.6 3.2 -11.3235
614 2 8 11.2 4.8 -9.84378
615 3 9.6 9.6 3.2 -11.2748
616 1 11.2 11.2 4.8 -11.8118
617 3 12.8 9.6 3.2 -11.2048
618 1 14.4 11.2 4.8 -11.7826
619 3 16 9.6 3.2 -11.1996
620 1 17.6 11.2 4.8 -11.8122
621 3 19.2 9.6 3.2 -11.3091
622 1 20.8 11.2 4.8 -11.8776
623 3 22.4 9.6 3.2 -11.414
624 3 24 11.2 4.8 -11.4346
625 1 25.6 9.6 3.2 -11.8016
626 3 27.2 11.2 4.8 -11.3094
627 1 28.8 9.6 3.2 -11.8417
628 3 30.4 11.2 4.8 -11.242
629 1 32 9.6 3.2 -11.842
630 3 33.6 11.2 4.8 -11.3086
631 2 35.2 9.6 3.2 -9.80681
632 3 36.8 11.2 4.8 -11.2731
633 1 38.4 9.6 3.2 -11.8315
634 3 40 11.2 4.8 -11.3278
635 3 41.6 9.6 3.2 -11.4132
636 1 43.2 11.2 4.8 -11.8774
637 3 44.8 9.6 3.2 -11.3078
638 1 46.4 11.2 4.8 -11.8681
639 3 48 9.6 3.2 -11.2713
640 1 49.6 11.2 4.8 -11.7253
641 2 0 12.8 3.2 -9.78147
642 2 1.6 14.4 4.8 -9.81069
643 2 3.2 12.8 3.2 -9.8833
644 1 4.8 14.4 4.8 -11.7425
645 3 6.4 12.8 3.2 -11.3281
646 1 8 14.4 4.8 -11.8708
647 3 9.6 12.8 3.2 -11.2707
648 1 11.2 14.4 4.8 -11.8115
649 2 12.8 12.8 3.2 -9.735
650 1 14.4 14.4 4.8 -11.8376
651 3 16 12.8 3.2 -11.2039
652 1 17.6 14.4 4.8 -11.8415
653 3 19.2 12.8 3.2 -11.242
654 1 20.8 14.4 4.8 -11.8275
655 3 22.4 12.8 3.2 -11.3982
656 3 24 14.4 4.8 -11.409
657 1 25.6 12.8 3.2 -11.8768
658 3 27.2 14.4 4.8 -11.3301
659 1 28.8 12.8 3.2 -11.8679
660 3 30.4 14.4 4.8 -11.2363
661 1 32 12.8 3.2 -11.8115
662 3 33.6 14.4 4.8 -11.2008
663 1 35.2 12.8 3.2 -11.8661
664 3 36.8 14.4 4.8 -11.2679
665 1 38.4 12.8 3.2 -11.8802
666 3 40 14.4 4.8 -11.3546
667 3 41.6 12.8 3.2 -11.4443
668 1 43.2 14.4 4.8 -11.8523
669 3 44.8 12.8 3.2 -11.274
670 1 46.4 14.4 4.8 -11.8414
671 3 48 12.8 3.2 -11.2045
672 1 49.6 14.4 4.8 -11.7446
673 2 0 16 3.2 -9.89108
674 3 1.6 17.6 4.8 -11.2977
675 3 3.2 16 3.2 -11.3041
676 2 4.8 17.6 4.8 -9.80938
677 3 6.4 16 3.2 -11.3003
678 2 8 17.6 4.8 -9.78653
679 3 9.6 16 3.2 -11.3097
680 1 11.2 17.6 4.8 -11.7802
681 3 12.8 16 3.2 -11.2033
682 1 14.4 17.6 4.8 -11.8782
683 3 16 16 3.2 -11.2417
684 1 17.6 17.6 4.8 -11.8414
685 3 19.2 16 3.2 -11.2048
686 1 20.8 17.6 4.8 -11.7873
687 2 22.4 16 3.2 -9.79794
688 2 24 17.6 4.8 -9.83839
689 1 25.6 16 3.2 -11.8665
690 3 27.2 17.6 4.8 -11.2701
691 2 28.8 16 3.2 -9.76431
692 2 30.4 17.6 4.8 -9.83719
693 1 32 16 3.2 -11.8501
694 2 33.6 17.6 4.8 -9.82489
695 1 35.2 16 3.2 -11.8273
696 2 36.8 17.6 4.8 -9.88655
697 1 38.4 16 3.2 -11.8503
698 1 40 17.6 4.8 -11.8265
699 2 41.6 16 3.2 -9.86978
700 1 43.2 17.6 4.8 -11.7382
701 2 44.8 16 3.2 -9.86637
702 2 46.4 17.6 4.8 -9.84268
703 3 48 16 3.2 -11.3993
704 3 49.6 17.6 4.8 -11.3563
705 1 0 19.2 3.2 -11.8412
706 3 1.6 20.8 4.8 -11.242
707 1 3.2 19.2 3.2 -11.8027
708 3 4.8 20.8 4.8 -11.1651
709 1 6.4 19.2 3.2 -11.7492
710 2 8 20.8 4.8 -9.83282
711 3 9.6 19.2 3.2 -11.229
712 1 11.2 20.8 4.8 -11.7919
713 3 12.8 19.2 3.2 -11.2429
714 1 14.4 20.8 4.8 -11.8415
715 3 16 19.2 3.2 -11.2417
716 1 17.6 20.8 4.8 -11.8415
717 3 19.2 19.2 3.2 -11.2039
718 1 20.8 20.8 4.8 -11.8411
719 2 22.4 19.2 3.2 -9.85857
720 2 24 20.8 4.8 -9.89258
721 1 25.6 19.2 3.2 -11.7581
722 3 27.2 20.8 4.8 -11.287
723 1 28.8 19.2 3.2 -11.8561
724 3 30.4 20.8 4.8 -11.3564
725 3 32 19.2 3.2 -11.3725
726 1 33.6 20.8 4.8 -11.7989
727 3 35.2 19.2 3.2 -11.4528
728 1 36.8 20.8 4.8 -11.8609
729 3 38.4 19.2 3.2 -11.3869
730 1 40 20.8 4.8 -11.8501
731 2 41.6 19.2 3.2 -9.874
732 2 43.2 20.8 4.8 -9.8531
733 1 44.8 19.2 3.2 -11.7387
734 3 46.4 20.8 4.8 -11.2029
735 1 48 19.2 3.2 -11.853
736 3 49.6 20.8 4.8 -11.242
737 1 0 22.4 3.2 -11.8417
738 3 1.6 24 4.8 -11.2414
739 1 3.2 22.4 3.2 -11.8415
740 3 4.8 24 4.8 -11.2748
741 1 6.4 22.4 3.2 -11.8049
742 2 8 24 4.8 -9.85539
743 3 9.6 22.4 3.2 -11.3772
744 1 11.2 24 4.8 -11.8131
745 3 12.8 22.4 3.2 -11.2367
746 1 14.4 24 4.8 -11.8136
747 3 16 22.4 3.2 -11.2039
748 1 17.6 24 4.8 -11.8415
749 3 19.2 22.4 3.2 -11.2423
750 1 20.8 24 4.8 -11.8671
751 3 22.4 22.4 3.2 -11.3745
752 2 24 24 4.8 -9.905
753 1 25.6 22.4 3.2 -11.8259
754 3 27.2 24 4.8 -11.3396
755 2 28.8 22.4 3.2 -9.96366
756 1 30.4 24 4.8 -11.8732
757 3 32 22.4 3.2 -11.3286
758 1 33.6 24 4.8 -11.8233
759 3 35.2 22.4 3.2 -11.3355
760 1 36.8 24 4.8 -11.7561
761 3 38.4 22.4 3.2 -11.3609
762 2 40 24 4.8 -9.82063
763 3 41.6 22.4 3.2 -11.3726
764 3 43.2 24 4.8 -11.3312
765 1 44.8 22.4 3.2 -11.7984
766 3 46.4 24 4.8 -11.2039
767 1 48 22.4 3.2 -11.8124
768 3 49.6 24 4.8 -11.2417
769 1 0 25.6 3.2 -11.8417
771 1 3.2 25.6 3.2 -11.8676
773 2 6.4 25.6 3.2 -9.84135
775 2 9.6 25.6 3.2 -9.83385
777 3 12.8 25.6 3.2 -11.2358
779 3 16 25.6 3.2 -11.2042
781 3 19.2 25.6 3.2 -11.2417
783 3 22.4 25.6 3.2 -11.4368
785 1 25.6 25.6 3.2 -11.8569
787 3 28.8 25.6 3.2 -11.366
789 3 32 25.6 3.2 -11.3626
791 3 35.2 25.6 3.2 -11.3558
793 1 38.4 25.6 3.2 -11.7906
795 1 41.6 25.6 3.2 -11.8537
797 1 44.8 25.6 3.2 -11.8119
799 1 48 25.6 3.2 -11.8124
770 3 1.6 27.2 4.8 -11.2417
801 1 0 28.8 3.2 -11.8415
772 3 4.8 27.2 4.8 -11.2973
803 1 3.2 28.8 3.2 -11.8696
774 1 8 27.2 4.8 -11.7455
805 2 6.4 28.8 3.2 -9.86864
776 1 11.2 27.2 4.8 -11.7953
807 3 9.6 28.8 3.2 -11.1251
778 1 14.4 27.2 4.8 -11.7844
809 3 12.8 28.8 3.2 -11.2048
780 1 17.6 27.2 4.8 -11.8133
811 2 16 28.8 3.2 -9.83
782 1 20.8 27.2 4.8 -11.8286
813 3 19.2 28.8 3.2 -11.4079
784 2 24 27.2 4.8 -9.82968
815 3 22.4 28.8 3.2 -11.3424
817 1 25.6 28.8 3.2 -11.7907
786 2 27.2 27.2 4.8 -9.77121
819 2 28.8 28.8 3.2 -9.8294
788 1 30.4 27.2 4.8 -11.7948
821 2 32 28.8 3.2 -9.8566
790 3 33.6 27.2 4.8 -11.3729
823 1 35.2 28.8 3.2 -11.8522
792 3 36.8 27.2 4.8 -11.3229
825 1 38.4 28.8 3.2 -11.8114
794 3 40 27.2 4.8 -11.2048
827 1 41.6 28.8 3.2 -11.8419
796 3 43.2 27.2 4.8 -11.242
829 1 44.8 28.8 3.2 -11.814
798 3 46.4 27.2 4.8 -11.242
831 1 48 28.8 3.2 -11.812
800 3 49.6 27.2 4.8 -11.2414
802 3 1.6 30.4 4.8 -11.3344
833 1 0 32 3.2 -11.8088
804 3 4.8 30.4 4.8 -11.3632
835 2 3.2 32 3.2 -9.87243
806 1 8 30.4 4.8 -11.7847
837 2 6.4 32 3.2 -9.77568
808 1 11.2 30.4 4.8 -11.8366
839 2 9.6 32 3.2 -9.85274
810 1 14.4 30.4 4.8 -11.7879
841 3 12.8 32 3.2 -11.2574
812 2 17.6 30.4 4.8 -9.91898
843 2 16 32 3.2 -9.8613
814 3 20.8 30.4 4.8 -11.3173
845 1 19.2 32 3.2 -11.8227
816 2 24 30.4 4.8 -9.79718
847 1 22.4 32 3.2 -11.7867
849 1 25.6 32 3.2 -11.734
818 2 27.2 30.4 4.8 -9.77878
851 2 28.8 32 3.2 -9.89063
820 1 30.4 30.4 4.8 -11.7905
853 3 32 32 3.2 -11.3298
822 2 33.6 30.4 4.8 -9.88132
855 1 35.2 32 3.2 -11.7076
824 3 36.8 30.4 4.8 -11.1956
857 1 38.4 32 3.2 -11.7968
826 3 40 30.4 4.8 -11.2423
859 1 41.6 32 3.2 -11.8133
828 3 43.2 30.4 4.8 -11.2042
861 1 44.8 32 3.2 -11.8033
830 3 46.4 30.4 4.8 -11.2039
863 1 48 32 3.2 -11.8117
832 3 49.6 30.4 4.8 -11.2039
834 2 1.6 33.6 4.8 -9.81546
865 1 0 35.2 3.2 -11.781
836 1 4.8 33.6 4.8 -11.7151
867 2 3.2 35.2 3.2 -9.78524
838 1 8 33.6 4.8 -11.7513
869 2 6.4 35.2 3.2 -9.79791
840 1 11.2 33.6 4.8 -11.7417
871 2 9.6 35.2 3.2 -9.82845
842 1 14.4 33.6 4.8 -11.6461
873 1 12.8 35.2 3.2 -11.7497
844 3 17.6 33.6 4.8 -11.2348
875 1 16 35.2 3.2 -11.7802
846 3 20.8 33.6 4.8 -11.3209
877 1 19.2 35.2 3.2 -11.8534
848 2 24 33.6 4.8 -9.85375
879 3 22.4 35.2 3.2 -11.4033
881 1 25.6 35.2 3.2 -11.7559
850 2 27.2 33.6 4.8 -9.83259
883 2 28.8 35.2 3.2 -9.91569
852 2 30.4 33.6 4.8 -9.94778
885 3 32 35.2 3.2 -11.3875
854 3 33.6 33.6 4.8 -11.3442
887 1 35.2 35.2 3.2 -11.7762
856 2 36.8 33.6 4.8 -9.80655
889 3 38.4 35.2 3.2 -11.3024
858 3 40 33.6 4.8 -11.3063
891 1 41.6 35.2 3.2 -11.8753
860 3 43.2 33.6 4.8 -11.1652
893 1 44.8 35.2 3.2 -11.8111
862 3 46.4 33.6 4.8 -11.2045
895 1 48 35.2 3.2 -11.8209
864 2 49.6 33.6 4.8 -9.74924
866 1 1.6 36.8 4.8 -11.7341
897 3 0 38.4 3.2 -11.3563
868 1 4.8 36.8 4.8 -11.763
899 3 3.2 38.4 3.2 -11.3503
870 2 8 36.8 4.8 -9.86391
901 2 6.4 38.4 3.2 -9.86717
872 3 11.2 36.8 4.8 -11.2626
903 1 9.6 38.4 3.2 -11.816
874 3 14.4 36.8 4.8 -11.2027
905 1 12.8 38.4 3.2 -11.812
876 3 17.6 36.8 4.8 -11.2063
907 1 16 38.4 3.2 -11.812
878 3 20.8 36.8 4.8 -11.3218
909 1 19.2 38.4 3.2 -11.7827
880 3 24 36.8 4.8 -11.3451
911 2 22.4 38.4 3.2 -9.96417
913 2 25.6 38.4 3.2 -9.87411
882 1 27.2 36.8 4.8 -11.7955
915 2 28.8 38.4 3.2 -9.94611
884 3 30.4 36.8 4.8 -11.3919
917 3 32 38.4 3.2 -11.3705
886 3 33.6 36.8 4.8 -11.3837
919 3 35.2 38.4 3.2 -11.3106
888 3 36.8 36.8 4.8 -11.3264
921 2 38.4 38.4 3.2 -9.90665
890 3 40 36.8 4.8 -11.392
923 1 41.6 38.4 3.2 -11.8755
892 3 43.2 36.8 4.8 -11.242
925 1 44.8 38.4 3.2 -11.8932
894 3 46.4 36.8 4.8 -11.3061
927 3 48 38.4 3.2 -11.3311
896 2 49.6 36.8 4.8 -9.86464
898 1 1.6 40 4.8 -11.799
929 2 0 41.6 3.2 -9.87727
900 1 4.8 40 4.8 -11.8167
931 3 3.2 41.6 3.2 -11.3165
902 2 8 40 4.8 -9.85997
933 2 6.4 41.6 3.2 -9.90543
904 3 11.2 40 4.8 -11.2042
935 1 9.6 41.6 3.2 -11.8133
906 3 14.4 40 4.8 -11.2735
937 1 12.8 41.6 3.2 -11.8413
908 2 17.6 40 4.8 -9.80889
939 1 16 41.6 3.2 -11.871
910 1 20.8 40 4.8 -11.6751
941 2 19.2 41.6 3.2 -9.84377
912 1 24 40 4.8 -11.8393
943 3 22.4 41.6 3.2 -11.3896
945 3 25.6 41.6 3.2 -11.4435
914 1 27.2 40 4.8 -11.8538
947 3 28.8 41.6 3.2 -11.3906
916 2 30.4 40 4.8 -9.85763
949 3 32 41.6 3.2 -11.3663
918 2 33.6 40 4.8 -9.8722
951 3 35.2 41.6 3.2 -11.2687
920 2 36.8 40 4.8 -9.91001
953 3 38.4 41.6 3.2 -11.407
922 3 40 40 4.8 -11.4308
955 3 41.6 41.6 3.2 -11.3288
924 3 43.2 40 4.8 -11.3394
957 1 44.8 41.6 3.2 -11.8548
926 3 46.4 40 4.8 -11.3698
959 1 48 41.6 3.2 -11.9047
928 3 49.6 40 4.8 -11.4411
930 1 1.6 43.2 4.8 -11.726
961 1 0 44.8 3.2 -11.6551
932 1 4.8 43.2 4.8 -11.8062
963 2 3.2 44.8 3.2 -9.77836
934 2 8 43.2 4.8 -9.88461
965 2 6.4 44.8 3.2 -9.81332
936 3 11.2 43.2 4.8 -11.2728
967 1 9.6 44.8 3.2 -11.7752
938 3 14.4 43.2 4.8 -11.3083
969 1 12.8 44.8 3.2 -11.8373
940 3 17.6 43.2 4.8 -11.3273
971 1 16 44.8 3.2 -11.8411
942 2 20.8 43.2 4.8 -9.88386
973 1 19.2 44.8 3.2 -11.8417
944 2 24 43.2 4.8 -9.89546
975 1 22.4 44.8 3.2 -11.8267
977 2 25.6 44.8 3.2 -9.91392
946 1 27.2 43.2 4.8 -11.8973
979 3 28.8 44.8 3.2 -11.3181
948 1 30.4 43.2 4.8 -11.8672
981 3 32 44.8 3.2 -11.3399
950 1 33.6 43.2 4.8 -11.7442
983 3 35.2 44.8 3.2 -11.1648
952 1 36.8 43.2 4.8 -11.7841
985 2 38.4 44.8 3.2 -9.81162
954 3 40 43.2 4.8 -11.4081
987 1 41.6 44.8 3.2 -11.7434
956 3 43.2 43.2 4.8 -11.3073
989 1 44.8 44.8 3.2 -11.7836
958 3 46.4 43.2 4.8 -11.2659
991 1 48 44.8 3.2 -11.7561
960 2 49.6 43.2 4.8 -9.85647
962 1 1.6 46.4 4.8 -11.7008
993 2 0 48 3.2 -9.79
964 1 4.8 46.4 4.8 -11.6943
995 2 3.2 48 3.2 -9.78397
966 1 8 46.4 4.8 -11.7239
997 2 6.4 48 3.2 -9.74313
968 2 11.2 46.4 4.8 -9.80731
999 1 9.6 48 3.2 -11.7505
970 3 14.4 46.4 4.8 -11.2042
1001 1 12.8 48 3.2 -11.8113
972 3 17.6 46.4 4.8 -11.2045
1003 1 16 48 3.2 -11.8028
974 3 20.8 46.4 4.8 -11.1248
1005 1 19.2 48 3.2 -11.7499
976 2 24 46.4 4.8 -9.832
1007 1 22.4 48 3.2 -11.7829
1009 1 25.6 48 3.2 -11.7884
978 2 27.2 46.4 4.8 -9.83297
1011 1 28.8 48 3.2 -11.8216
980 1 30.4 46.4 4.8 -11.8494
1013 3 32 48 3.2 -11.3828
982 1 33.6 46.4 4.8 -11.7796
1015 3 35.2 48 3.2 -11.2743
984 1 36.8 46.4 4.8 -11.7479
1017 3 38.4 48 3.2 -11.2864
986 2 40 46.4 4.8 -9.87216
1019 2 41.6 48 3.2 -9.8887
988 3 43.2 46.4 4.8 -11.2001
1021 1 44.8 48 3.2 -11.8089
990 2 46.4 46.4 4.8 -9.78201
1023 1 48 48 3.2 -11.7591
992 2 49.6 46.4 4.8 -9.72306
994 1 1.6 49.6 4.8 -11.7484
996 1 4.8 49.6 4.8 -11.7551
998 2 8 49.6 4.8 -9.81654
1000 2 11.2 49.6 4.8 -9.8267
1002 3 14.4 49.6 4.8 -11.3451
1004 2 17.6 49.6 4.8 -9.8285
1006 2 20.8 49.6 4.8 -9.79034
1008 2 24 49.6 4.8 -9.73852
1010 2 27.2 49.6 4.8 -9.85924
1012 3 30.4 49.6 4.8 -11.3628
1014 1 33.6 49.6 4.8 -11.7942
1016 3 36.8 49.6 4.8 -11.3032
1018 3 40 49.6 4.8 -11.3761
1020 3 43.2 49.6 4.8 -11.3809
1022 2 46.4 49.6 4.8 -9.78584
1024 1 49.6 49.6 4.8 -11.8094
1025 3 0 0 6.4 -11.3094
1026 2 1.6 1.6 8 -9.83655
1027 3 3.2 0 6.4 -11.3206
1028 2 4.8 1.6 8 -9.85327
1029 2 6.4 0 6.4 -9.83738
1030 3 8 1.6 8 -11.2367
1031 1 9.6 0 6.4 -11.7908
1032 2 11.2 1.6 8 -9.70694
1033 1 12.8 0 6.4 -11.7933
1034 3 14.4 1.6 8 -11.3135
1035 3 16 0 6.4 -11.4267
1036 2 17.6 1.6 8 -9.91914
1037 2 19.2 0 6.4 -9.87533
1038 2 20.8 1.6 8 -9.85133
1039 2 22.4 0 6.4 -9.81344
1040 1 24 1.6 8 -11.8345
1041 2 25.6 0 6.4 -9.8442
1042 3 27.2 1.6 8 -11.4061
1043 1 28.8 0 6.4 -11.8954
1044 3 30.4 1.6 8 -11.3083
1045 2 32 0 6.4 -9.84095
1046 3 33.6 1.6 8 -11.2384
1047 1 35.2 0 6.4 -11.7932
1048 3 36.8 1.6 8 -11.2423
1049 1 38.4 0 6.4 -11.8406
1050 3 40 1.6 8 -11.3579
1051 1 41.6 0 6.4 -11.8583
1052 3 43.2 1.6 8 -11.3573
1053 1 44.8 0 6.4 -11.7482
1054 1 46.4 1.6 8 -11.8038
1055 3 48 0 6.4 -11.2346
1056 1 49.6 1.6 8 -11.8675
1057 3 0 3.2 6.4 -11.2989
1058 2 1.6 4.8 8 -9.88882
1059 2 3.2 3.2 6.4 -9.94178
1060 2 4.8 4.8 8 -9.80012
1061 1 6.4 3.2 6.4 -11.8408
1062 3 8 4.8 8 -11.2371
1063 1 9.6 3.2 6.4 -11.8046
1064 3 11.2 4.8 8 -11.3272
1065 1 12.8 3.2 6.4 -11.7761
1066 3 14.4 4.8 8 -11.4403
1067 2 16 3.2 6.4 -9.83049
1068 1 17.6 4.8 8 -11.8068
1069 3 19.2 3.2 6.4 -11.2272
1070 1 20.8 4.8 8 -11.8814
1071 3 22.4 3.2 6.4 -11.2758
1072 1 24 4.8 8 -11.881
1073 3 25.6 3.2 6.4 -11.3029
1074 2 27.2 4.8 8 -9.89757
1075 1 28.8 3.2 6.4 -11.8534
1076 3 30.4 4.8 8 -11.1639
1077 1 32 3.2 6.4 -11.8421
1078 3 33.6 4.8 8 -11.242
1079 1 35.2 3.2 6.4 -11.8117
1080 3 36.8 4.8 8 -11.242
1081 1 38.4 3.2 6.4 -11.8458
1082 3 40 4.8 8 -11.3724
1083 2 41.6 3.2 6.4 -9.85089
1084 1 43.2 4.8 8 -11.8647
1085 3 44.8 3.2 6.4 -11.2671
1086 1 46.4 4.8 8 -11.8412
1087 3 48 3.2 6.4 -11.2426
1088 1 49.6 4.8 8 -11.8137
1089 2 0 6.4 6.4 -9.8526
1090 3 1.6 8 8 -11.3907
1091 3 3.2 6.4 6.4 -11.3739
1092 3 4.8 8 8 -11.2632
1093 1 6.4 6.4 6.4 -11.7644
1094 2 8 8 8 -9.63819
1095 2 9.6 6.4 6.4 -9.80265
1096 1 11.2 8 8 -11.725
1097 2 12.8 6.4 6.4 -9.95386
1098 2 14.4 8 8 -9.877
1099 3 16 6.4 6.4 -11.3153
1100 1 17.6 8 8 -11.8517
1101 3 19.2 6.4 6.4 -11.2429
1102 1 20.8 8 8 -11.9021
1103 3 22.4 6.4 6.4 -11.3346
1104 2 24 8 8 -9.86858