ITEM: TIMESTEP
0
ITEM: NUMBER OF ATOMS
8192
ITEM: BOX BOUNDS pp pp pp
0.0000000000000000e+00 5.1200000000000003e+01
0.0000000000000000e+00 5.1200000000000003e+01
0.0000000000000000e+00 5.1200000000000003e+01
ITEM: ATOMS id type x y z c_eng
1 3 0 0 0 -11.4764
2 1 1.6 1.6 1.6 -11.7122
3 3 3.2 0 0 -11.4057
4 3 4.8 1.6 1.6 -11.1726
5 1 6.4 0 0 -11.705
6 2 8 1.6 1.6 -9.93598
7 2 9.6 0 0 -9.95408
8 1 11.2 1.6 1.6 -11.8094
9 3 12.8 0 0 -11.2823
10 2 14.4 1.6 1.6 -9.8729
11 2 16 0 0 -9.9374
12 3 17.6 1.6 1.6 -11.4932
13 1 19.2 0 0 -11.7013
14 2 20.8 1.6 1.6 -9.94133
15 2 22.4 0 0 -9.76339
16 3 24 1.6 1.6 -11.3544
17 2 25.6 0 0 -9.78978
18 3 27.2 1.6 1.6 -11.2824
19 1 28.8 0 0 -11.7046
20 1 30.4 1.6 1.6 -11.4578
21 2 32 0 0 -9.63727
22 1 33.6 1.6 1.6 -11.3072
23 3 35.2 0 0 -10.9529
24 1 36.8 1.6 1.6 -11.4111
25 3 38.4 0 0 -11.3053
26 1 40 1.6 1.6 -11.5669
27 3 41.6 0 0 -11.0906
28 1 43.2 1.6 1.6 -11.6521
29 1 44.8 0 0 -11.6871
30 3 46.4 1.6 1.6 -10.968
31 1 48 0 0 -11.689
32 1 49.6 1.6 1.6 -11.675
33 3 0 3.2 0 -11.1689
34 1 1.6 4.8 1.6 -11.5449
35 1 3.2 3.2 0 -11.6927
36 1 4.8 4.8 1.6 -11.6818
37 1 6.4 3.2 0 -11.7458
38 3 8 4.8 1.6 -11.3798
39 3 9.6 3.2 0 -11.2875
40 3 11.2 4.8 1.6 -11.4066
41 1 12.8 3.2 0 -11.7333
42 2 14.4 4.8 1.6 -9.97688
43 2 16 3.2 0 -9.91145
44 3 17.6 4.8 1.6 -11.5533
45 1 19.2 3.2 0 -11.791
46 3 20.8 4.8 1.6 -11.4826
47 1 22.4 3.2 0 -11.662
48 3 24 4.8 1.6 -11.4731
49 3 25.6 3.2 0 -11.3316
50 2 27.2 4.8 1.6 -10.0212
51 1 28.8 3.2 0 -11.7878
52 3 30.4 4.8 1.6 -11.2704
53 1 32 3.2 0 -11.5001
54 2 33.6 4.8 1.6 -9.75136
55 3 35.2 3.2 0 -10.9058
56 1 36.8 4.8 1.6 -11.4543
57 1 38.4 3.2 0 -11.4641
58 1 40 4.8 1.6 -11.3766
59 1 41.6 3.2 0 -11.6119
60 1 43.2 4.8 1.6 -11.6742
61 2 44.8 3.2 0 -9.77959
62 2 46.4 4.8 1.6 -9.892
63 1 48 3.2 0 -11.6378
64 2 49.6 4.8 1.6 -9.50662
65 1 0 6.4 0 -11.6783
66 1 1.6 8 1.6 -11.5596
67 3 3.2 6.4 0 -11.1536
68 1 4.8 8 1.6 -11.5819
69 2 6.4 6.4 0 -9.8943
70 3 8 8 1.6 -11.4686
71 2 9.6 6.4 0 -9.98088
72 3 11.2 8 1.6 -11.4243
73 3 12.8 6.4 0 -11.4337
74 3 14.4 8 1.6 -11.4825
75 1 16 6.4 0 -11.8798
76 2 17.6 8 1.6 -9.78796
77 3 19.2 6.4 0 -11.3383
78 2 20.8 8 1.6 -9.97563
79 3 22.4 6.4 0 -11.5217
80 3 24 8 1.6 -11.5586
81 2 25.6 6.4 0 -10.0195
82 3 27.2 8 1.6 -11.4826
83 2 28.8 6.4 0 -9.83093
84 3 30.4 8 1.6 -11.5319
85 1 32 6.4 0 -11.7428
86 3 33.6 8 1.6 -11.4617
87 2 35.2 6.4 0 -9.76707
88 3 36.8 8 1.6 -11.3424
89 3 38.4 6.4 0 -11.1164
90 3 40 8 1.6 -11.1874
91 3 41.6 6.4 0 -11.126
92 1 43.2 8 1.6 -11.6346
93 3 44.8 6.4 0 -11.4207
94 3 46.4 8 1.6 -11.324
95 3 48 6.4 0 -11.1716
96 1 49.6 8 1.6 -11.6928
97 3 0 9.6 0 -11.2091
98 1 1.6 11.2 1.6 -11.5952
99 2 3.2 9.6 0 -9.77033
100 1 4.8 11.2 1.6 -11.3583
101 3 6.4 9.6 0 -11.1435
102 1 8 11.2 1.6 -11.692
103 2 9.6 9.6 0 -10.0105
104 1 11.2 11.2 1.6 -11.8091
105 3 12.8 9.6 0 -11.3842
106 3 14.4 11.2 1.6 -11.39
107 1 16 9.6 0 -11.5384
108 1 17.6 11.2 1.6 -11.7478
109 1 19.2 9.6 0 -11.6619
110 3 20.8 11.2 1.6 -11.3821
111 3 22.4 9.6 0 -11.3337
112 2 24 11.2 1.6 -10.0155
113 3 25.6 9.6 0 -11.3123
114 3 27.2 11.2 1.6 -11.5346
115 2 28.8 9.6 0 -10.0366
116 3 30.4 11.2 1.6 -11.351
117 3 32 9.6 0 -11.3317
118 2 33.6 11.2 1.6 -9.88065
119 1 35.2 9.6 0 -11.6602
120 3 36.8 11.2 1.6 -11.238
121 1 38.4 9.6 0 -11.5299
122 3 40 11.2 1.6 -11.1091
123 1 41.6 9.6 0 -11.6255
124 1 43.2 11.2 1.6 -11.7289
125 3 44.8 9.6 0 -11.363
126 2 46.4 11.2 1.6 -9.98255
127 2 48 9.6 0 -9.93533
128 1 49.6 11.2 1.6 -11.7336
129 3 0 12.8 0 -11.2229
130 2 1.6 14.4 1.6 -9.73142
131 1 3.2 12.8 0 -11.323
132 1 4.8 14.4 1.6 -11.4904
133 1 6.4 12.8 0 -11.4216
134 1 8 14.4 1.6 -11.5075
135 3 9.6 12.8 0 -11.1405
136 2 11.2 14.4 1.6 -9.86089
137 2 12.8 12.8 0 -10.0382
138 3 14.4 14.4 1.6 -11.4613
139 3 16 12.8 0 -11.2845
140 1 17.6 14.4 1.6 -11.8901
141 3 19.2 12.8 0 -11.3108
142 2 20.8 14.4 1.6 -10.0339
143 1 22.4 12.8 0 -11.7926
144 3 24 14.4 1.6 -11.4111
145 2 25.6 12.8 0 -9.92195
146 2 27.2 14.4 1.6 -9.92373
147 3 28.8 12.8 0 -11.3284
148 1 30.4 14.4 1.6 -11.6651
149 2 32 12.8 0 -9.83625
150 1 33.6 14.4 1.6 -11.4989
151 3 35.2 12.8 0 -11.0214
152 1 36.8 14.4 1.6 -11.5056
153 1 38.4 12.8 0 -11.6208
154 3 40 14.4 1.6 -11.1559
155 3 41.6 12.8 0 -11.3072
156 1 43.2 14.4 1.6 -11.8207
157 2 44.8 12.8 0 -9.87877
158 3 46.4 14.4 1.6 -11.2572
159 2 48 12.8 0 -9.85905
160 2 49.6 14.4 1.6 -9.90245
161 3 0 16 0 -11.211
162 3 1.6 17.6 1.6 -11.3528
163 2 3.2 16 0 -9.81787
164 3 4.8 17.6 1.6 -11.1794
165 2 6.4 16 0 -9.49697
166 1 8 17.6 1.6 -11.3985
167 2 9.6 16 0 -9.8099
168 3 11.2 17.6 1.6 -11.1043
169 3 12.8 16 0 -11.5042
170 1 14.4 17.6 1.6 -11.5966
171 3 16 16 0 -11.2222
172 1 17.6 17.6 1.6 -11.7124
173 2 19.2 16 0 -9.92673
174 3 20.8 17.6 1.6 -11.4212
175 2 22.4 16 0 -9.93843
176 2 24 17.6 1.6 -9.81866
177 3 25.6 16 0 -11.2472
178 3 27.2 17.6 1.6 -11.2593
179 1 28.8 16 0 -11.7842
180 2 30.4 17.6 1.6 -9.77276
181 3 32 16 0 -11.0201
182 1 33.6 17.6 1.6 -11.5899
183 1 35.2 16 0 -11.5524
184 3 36.8 17.6 1.6 -11.0063
185 1 38.4 16 0 -11.5922
186 1 40 17.6 1.6 -11.6743
187 3 41.6 16 0 -11.2454
188 3 43.2 17.6 1.6 -11.2367
189 1 44.8 16 0 -11.7056
190 1 46.4 17.6 1.6 -11.7856
191 1 48 16 0 -11.7506
192 2 49.6 17.6 1.6 -9.84861
193 1 0 19.2 0 -11.8444
194 2 1.6 20.8 1.6 -9.62129
195 1 3.2 19.2 0 -11.6734
196 3 4.8 20.8 1.6 -11.0948
197 1 6.4 19.2 0 -11.4897
198 1 8 20.8 1.6 -11.5105
199 1 9.6 19.2 0 -11.4381
200 1 11.2 20.8 1.6 -11.5587
201 1 12.8 19.2 0 -11.5127
202 1 14.4 20.8 1.6 -11.5776
203 1 16 19.2 0 -11.4383
204 3 17.6 20.8 1.6 -11.2675
205 3 19.2 19.2 0 -11.2243
206 2 20.8 20.8 1.6 -9.93875
207 1 22.4 19.2 0 -11.6909
208 1 24 20.8 1.6 -11.546
209 1 25.6 19.2 0 -11.7257
210 2 27.2 20.8 1.6 -9.80694
211 3 28.8 19.2 0 -11.0182
212 1 30.4 20.8 1.6 -11.6258
213 1 32 19.2 0 -11.7394
214 3 33.6 20.8 1.6 -11.2895
215 3 35.2 19.2 0 -11.2939
216 3 36.8 20.8 1.6 -11.5604
217 1 38.4 19.2 0 -11.8164
218 1 40 20.8 1.6 -11.7413
219 2 41.6 19.2 0 -9.77533
220 3 43.2 20.8 1.6 -11.1003
221 1 44.8 19.2 0 -11.7181
222 2 46.4 20.8 1.6 -9.94496
223 3 48 19.2 0 -11.3239
224 3 49.6 20.8 1.6 -11.4147
225 1 0 22.4 0 -11.8224
226 1 1.6 24 1.6 -11.6588
227 2 3.2 22.4 0 -9.66379
228 1 4.8 24 1.6 -11.7022
229 1 6.4 22.4 0 -11.5618
230 2 8 24 1.6 -9.65452
231 3 9.6 22.4 0 -11.0894
232 3 11.2 24 1.6 -11.4152
233 2 12.8 22.4 0 -9.87446
234 3 14.4 24 1.6 -11.4673
235 3 16 22.4 0 -11.4019
236 2 17.6 24 1.6 -10.0035
237 3 19.2 22.4 0 -11.5139
238 1 20.8 24 1.6 -11.8911
239 1 22.4 22.4 0 -11.7221
240 3 24 24 1.6 -11.2417
241 3 25.6 22.4 0 -11.1349
242 2 27.2 24 1.6 -9.89342
243 1 28.8 22.4 0 -11.7512
244 1 30.4 24 1.6 -11.5985
245 1 32 22.4 0 -11.4995
246 3 33.6 24 1.6 -11.2942
247 3 35.2 22.4 0 -11.6162
248 3 36.8 24 1.6 -11.4093
249 3 38.4 22.4 0 -11.3927
250 1 40 24 1.6 -11.5695
251 1 41.6 22.4 0 -11.6196
252 1 43.2 24 1.6 -11.3335
253 1 44.8 22.4 0 -11.5611
254 2 46.4 24 1.6 -9.88438
255 3 48 22.4 0 -11.4593
256 3 49.6 24 1.6 -11.381
257 3 0 25.6 0 -11.4754
259 2 3.2 25.6 0 -9.95788
261 3 6.4 25.6 0 -11.1166
263 1 9.6 25.6 0 -11.6247
265 3 12.8 25.6 0 -11.4733
267 2 16 25.6 0 -10.0393
269 3 19.2 25.6 0 -11.5005
271 2 22.4 25.6 0 -9.87063
273 1 25.6 25.6 0 -11.7744
275 3 28.8 25.6 0 -11.2382
277 1 32 25.6 0 -11.6756
279 3 35.2 25.6 0 -11.3951
281 1 38.4 25.6 0 -11.7767
283 1 41.6 25.6 0 -11.464
285 1 44.8 25.6 0 -11.5177
287 3 48 25.6 0 -11.4223
258 2 1.6 27.2 1.6 -9.96922
289 3 0 28.8 0 -11.3065
260 3 4.8 27.2 1.6 -11.4074
291 3 3.2 28.8 0 -11.4754
262 1 8 27.2 1.6 -11.6943
293 3 6.4 28.8 0 -11.425
264 2 11.2 27.2 1.6 -9.81575
295 1 9.6 28.8 0 -11.5472
266 2 14.4 27.2 1.6 -9.94312
297 2 12.8 28.8 0 -9.90038
268 2 17.6 27.2 1.6 -9.95664
299 3 16 28.8 0 -11.3668
270 3 20.8 27.2 1.6 -11.4861
301 1 19.2 28.8 0 -11.8316
272 3 24 27.2 1.6 -11.4555
303 3 22.4 28.8 0 -11.4969
305 1 25.6 28.8 0 -11.7966
274 1 27.2 27.2 1.6 -11.721
307 3 28.8 28.8 0 -11.3212
276 1 30.4 27.2 1.6 -11.7988
309 3 32 28.8 0 -11.2942
278 3 33.6 27.2 1.6 -11.4381
311 3 35.2 28.8 0 -11.5074
280 2 36.8 27.2 1.6 -9.92572
313 3 38.4 28.8 0 -11.3578
282 3 40 27.2 1.6 -11.048
315 3 41.6 28.8 0 -11.132
284 1 43.2 27.2 1.6 -11.4698
317 3 44.8 28.8 0 -10.9538
286 3 46.4 27.2 1.6 -11.2427
319 1 48 28.8 0 -11.8266
288 2 49.6 27.2 1.6 -10.0477
290 1 1.6 30.4 1.6 -11.6745
321 1 0 32 0 -11.5674
292 1 4.8 30.4 1.6 -11.8059
323 2 3.2 32 0 -9.62593
294 3 8 30.4 1.6 -11.259
325 3 6.4 32 0 -11.2725
296 3 11.2 30.4 1.6 -11.2968
327 2 9.6 32 0 -9.92944
298 2 14.4 30.4 1.6 -9.89358
329 1 12.8 32 0 -11.7528
300 1 17.6 30.4 1.6 -11.7592
331 3 16 32 0 -11.3587
302 3 20.8 30.4 1.6 -11.4007
333 1 19.2 32 0 -11.7728
304 3 24 30.4 1.6 -11.4664
335 3 22.4 32 0 -11.3773
337 2 25.6 32 0 -9.81594
306 3 27.2 30.4 1.6 -11.315
339 1 28.8 32 0 -11.646
308 1 30.4 30.4 1.6 -11.5904
341 3 32 32 0 -11.1121
310 2 33.6 30.4 1.6 -9.93593
343 1 35.2 32 0 -11.6717
312 3 36.8 30.4 1.6 -11.3656
345 1 38.4 32 0 -11.3189
314 3 40 30.4 1.6 -11.2642
347 1 41.6 32 0 -11.4099
316 1 43.2 30.4 1.6 -11.6037
349 1 44.8 32 0 -11.6015
318 1 46.4 30.4 1.6 -11.835
351 3 48 32 0 -11.3161
320 3 49.6 30.4 1.6 -11.3782
322 1 1.6 33.6 1.6 -11.6211
353 2 0 35.2 0 -9.77136
324 1 4.8 33.6 1.6 -11.7335
355 3 3.2 35.2 0 -11.2994
326 1 8 33.6 1.6 -11.7437
357 3 6.4 35.2 0 -11.4205
328 1 11.2 33.6 1.6 -11.5529
359 3 9.6 35.2 0 -11.3129
330 1 14.4 33.6 1.6 -11.6276
361 1 12.8 35.2 0 -11.5995
332 3 17.6 33.6 1.6 -11.3027
363 1 16 35.2 0 -11.7221
334 2 20.8 33.6 1.6 -9.95927
365 2 19.2 35.2 0 -9.82569
336 2 24 33.6 1.6 -9.84231
367 2 22.4 35.2 0 -9.95789
369 1 25.6 35.2 0 -11.6246
338 2 27.2 33.6 1.6 -9.8231
371 3 28.8 35.2 0 -11.2118
340 1 30.4 33.6 1.6 -11.6089
373 2 32 35.2 0 -9.87694
342 1 33.6 33.6 1.6 -11.6304
375 1 35.2 35.2 0 -11.461
344 1 36.8 33.6 1.6 -11.4215
377 1 38.4 35.2 0 -11.1709
346 1 40 33.6 1.6 -11.4099
379 1 41.6 35.2 0 -11.3402
348 3 43.2 33.6 1.6 -11.0036
381 2 44.8 35.2 0 -9.80738
350 3 46.4 33.6 1.6 -11.3841
383 3 48 35.2 0 -11.2577
352 3 49.6 33.6 1.6 -11.247
354 3 1.6 36.8 1.6 -11.162
385 3 0 38.4 0 -11.2647
356 2 4.8 36.8 1.6 -9.78183
387 1 3.2 38.4 0 -11.7173
358 1 8 36.8 1.6 -11.6081
389 1 6.4 38.4 0 -11.525
360 3 11.2 36.8 1.6 -11.1732
391 3 9.6 38.4 0 -11.4776
362 2 14.4 36.8 1.6 -9.7857
393 2 12.8 38.4 0 -9.85329
364 3 17.6 36.8 1.6 -11.3147
395 1 16 38.4 0 -11.5383
366 2 20.8 36.8 1.6 -9.85487
397 1 19.2 38.4 0 -11.7222
368 2 24 36.8 1.6 -9.71531
399 3 22.4 38.4 0 -11.161
401 3 25.6 38.4 0 -11.0782
370 1 27.2 36.8 1.6 -11.8149
403 3 28.8 38.4 0 -11.2835
372 1 30.4 36.8 1.6 -11.814
405 3 32 38.4 0 -11.295
374 1 33.6 36.8 1.6 -11.7124
407 3 35.2 38.4 0 -11.3959
376 3 36.8 36.8 1.6 -11.0196
409 2 38.4 38.4 0 -9.79552
378 1 40 36.8 1.6 -11.4713
411 3 41.6 38.4 0 -11.0282
380 1 43.2 36.8 1.6 -11.3924
413 2 44.8 38.4 0 -9.73711
382 2 46.4 36.8 1.6 -9.85935
415 1 48 38.4 0 -11.6739
384 1 49.6 36.8 1.6 -11.7969
386 1 1.6 40 1.6 -11.8138
417 1 0 41.6 0 -11.8072
388 1 4.8 40 1.6 -11.5168
419 3 3.2 41.6 0 -11.088
390 2 8 40 1.6 -9.68767
421 1 6.4 41.6 0 -11.6179
392 2 11.2 40 1.6 -9.98593
423 3 9.6 41.6 0 -11.386
394 3 14.4 40 1.6 -11.2533
425 1 12.8 41.6 0 -11.6293
396 3 17.6 40 1.6 -11.1427
427 1 16 41.6 0 -11.5948
398 1 20.8 40 1.6 -11.5908
429 3 19.2 41.6 0 -11.2978
400 1 24 40 1.6 -11.6187
431 1 22.4 41.6 0 -11.5421
433 1 25.6 41.6 0 -11.4739
402 2 27.2 40 1.6 -9.81642
435 1 28.8 41.6 0 -11.7373
404 2 30.4 40 1.6 -9.68361
437 1 32 41.6 0 -11.7887
406 1 33.6 40 1.6 -11.6199
439 3 35.2 41.6 0 -11.447
408 1 36.8 40 1.6 -11.764
441 3 38.4 41.6 0 -11.1869
410 1 40 40 1.6 -11.4499
443 1 41.6 41.6 0 -11.6493
412 1 43.2 40 1.6 -11.4831
445 1 44.8 41.6 0 -11.6332
414 3 46.4 40 1.6 -10.9936
447 1 48 41.6 0 -11.5668
416 3 49.6 40 1.6 -11.1847
418 3 1.6 43.2 1.6 -11.3422
449 2 0 44.8 0 -9.88464
420 2 4.8 43.2 1.6 -9.84635
451 2 3.2 44.8 0 -9.99782
422 3 8 43.2 1.6 -11.1537
453 2 6.4 44.8 0 -9.87091
424 1 11.2 43.2 1.6 -11.6684
455 2 9.6 44.8 0 -9.91345
426 1 14.4 43.2 1.6 -11.6306
457 1 12.8 44.8 0 -11.6773
428 3 17.6 43.2 1.6 -11.4991
459 3 16 44.8 0 -11.2144
430 3 20.8 43.2 1.6 -11.3824
461 3 19.2 44.8 0 -11.4899
432 1 24 43.2 1.6 -11.6362
463 3 22.4 44.8 0 -11.3376
465 1 25.6 44.8 0 -11.7156
434 2 27.2 43.2 1.6 -9.82274
467 3 28.8 44.8 0 -11.3129
436 3 30.4 43.2 1.6 -11.3893
469 2 32 44.8 0 -9.94246
438 3 33.6 43.2 1.6 -11.3503
471 3 35.2 44.8 0 -11.1976
440 1 36.8 43.2 1.6 -11.6453
473 1 38.4 44.8 0 -11.4582
442 2 40 43.2 1.6 -9.65029
475 1 41.6 44.8 0 -11.6956
444 3 43.2 43.2 1.6 -11.0058
477 3 44.8 44.8 0 -11.1204
446 1 46.4 43.2 1.6 -11.6834
479 3 48 44.8 0 -11.3434
448 2 49.6 43.2 1.6 -9.90468
450 2 1.6 46.4 1.6 -9.85988
481 1 0 48 0 -11.8842
452 1 4.8 46.4 1.6 -11.6691
483 3 3.2 48 0 -11.2947
454 1 8 46.4 1.6 -11.6179
485 1 6.4 48 0 -11.6635
456 3 11.2 46.4 1.6 -11.2724
487 3 9.6 48 0 -11.4173
458 1 14.4 46.4 1.6 -11.7095
489 3 12.8 48 0 -11.4066
460 3 17.6 46.4 1.6 -11.1695
491 1 16 48 0 -11.6858
462 1 20.8 46.4 1.6 -11.9638
493 1 19.2 48 0 -11.6987
464 2 24 46.4 1.6 -9.86184
495 3 22.4 48 0 -11.3153
497 1 25.6 48 0 -11.6996
466 2 27.2 46.4 1.6 -9.87367
499 3 28.8 48 0 -11.3202
468 3 30.4 46.4 1.6 -11.2622
501 3 32 48 0 -11.2844
470 2 33.6 46.4 1.6 -9.86265
503 1 35.2 48 0 -11.6422
472 1 36.8 46.4 1.6 -11.5496
505 2 38.4 48 0 -9.49594
474 2 40 46.4 1.6 -9.7369
507 3 41.6 48 0 -11.2766
476 3 43.2 46.4 1.6 -11.4842
509 1 44.8 48 0 -11.6521
478 3 46.4 46.4 1.6 -11.2769
511 1 48 48 0 -11.802
480 2 49.6 46.4 1.6 -9.8161
482 3 1.6 49.6 1.6 -11.4245
484 3 4.8 49.6 1.6 -11.2579
486 2 8 49.6 1.6 -9.73682
488 1 11.2 49.6 1.6 -11.9032
490 2 14.4 49.6 1.6 -9.77382
492 1 17.6 49.6 1.6 -11.686
494 3 20.8 49.6 1.6 -11.3779
496 1 24 49.6 1.6 -11.7863
498 2 27.2 49.6 1.6 -9.78365
500 1 30.4 49.6 1.6 -11.5061
502 1 33.6 49.6 1.6 -11.5683
504 1 36.8 49.6 1.6 -11.5952
506 3 40 49.6 1.6 -11.1647
508 1 43.2 49.6 1.6 -11.7058
510 3 46.4 49.6 1.6 -11.2339
512 3 49.6 49.6 1.6 -11.2558
513 3 0 0 3.2 -11.305
514 1 1.6 1.6 4.8 -11.7136
515 3 3.2 0 3.2 -11.2649
516 1 4.8 1.6 4.8 -11.7834
517 1 6.4 0 3.2 -11.7511
518 3 8 1.6 4.8 -11.2496
519 3 9.6 0 3.2 -11.3884
520 3 11.2 1.6 4.8 -11.4073
521 3 12.8 0 3.2 -11.4271
522 2 14.4 1.6 4.8 -9.88631
523 3 16 0 3.2 -11.4837
524 3 17.6 1.6 4.8 -11.5512
525 3 19.2 0 3.2 -11.5065
526 2 20.8 1.6 4.8 -9.9165
527 3 22.4 0 3.2 -11.5379
528 2 24 1.6 4.8 -9.88572
529 1 25.6 0 3.2 -11.8371
530 3 27.2 1.6 4.8 -11.3482
531 1 28.8 0 3.2 -11.657
532 3 30.4 1.6 4.8 -11.2754
533 1 32 0 3.2 -11.37
534 1 33.6 1.6 4.8 -11.3847
535 1 35.2 0 3.2 -11.2843
536 1 36.8 1.6 4.8 -11.3133
537 3 38.4 0 3.2 -10.8435
538 3 40 1.6 4.8 -11.0508
539 1 41.6 0 3.2 -11.723
540 3 43.2 1.6 4.8 -11.3431
541 3 44.8 0 3.2 -11.1626
542 1 46.4 1.6 4.8 -11.6294
543 1 48 0 3.2 -11.6818
544 2 49.6 1.6 4.8 -9.77229
545 2 0 3.2 3.2 -9.69346
546 3 1.6 4.8 4.8 -11.1751
547 1 3.2 3.2 3.2 -11.5958
548 3 4.8 4.8 4.8 -11.2221
549 3 6.4 3.2 3.2 -11.3035
550 1 8 4.8 4.8 -11.7725
551 2 9.6 3.2 3.2 -9.96532
552 2 11.2 4.8 4.8 -9.59781
553 1 12.8 3.2 3.2 -11.7205
554 1 14.4 4.8 4.8 -11.6755
555 3 16 3.2 3.2 -11.551
556 3 17.6 4.8 4.8 -11.3479
557 3 19.2 3.2 3.2 -11.4444
558 1 20.8 4.8 4.8 -11.8249
559 3 22.4 3.2 3.2 -11.4563
560 1 24 4.8 4.8 -11.6215
561 1 25.6 3.2 3.2 -11.7624
562 1 27.2 4.8 4.8 -11.5194
563 3 28.8 3.2 3.2 -11.2281
564 3 30.4 4.8 4.8 -11.3277
565 1 32 3.2 3.2 -11.5712
566 2 33.6 4.8 4.8 -9.66867
567 1 35.2 3.2 3.2 -11.2166
568 1 36.8 4.8 4.8 -11.486
569 1 38.4 3.2 3.2 -11.2461
570 1 40 4.8 4.8 -11.6554
571 2 41.6 3.2 3.2 -9.57454
572 3 43.2 4.8 4.8 -11.3864
573 2 44.8 3.2 3.2 -9.90583
574 3 46.4 4.8 4.8 -11.2098
575 1 48 3.2 3.2 -11.6238
576 1 49.6 4.8 4.8 -11.6869
577 1 0 6.4 3.2 -11.5304
578 3 1.6 8 4.8 -11.1231
579 2 3.2 6.4 3.2 -9.63271
580 1 4.8 8 4.8 -11.604
581 2 6.4 6.4 3.2 -9.85099
582 3 8 8 4.8 -11.1815
583 3 9.6 6.4 3.2 -11.4609
584 1 11.2 8 4.8 -11.7156
585 3 12.8 6.4 3.2 -11.2988
586 1 14.4 8 4.8 -11.7159
587 3 16 6.4 3.2 -11.4189
588 1 17.6 8 4.8 -11.7251
589 1 19.2 6.4 3.2 -11.768
590 1 20.8 8 4.8 -11.6619
591 3 22.4 6.4 3.2 -11.4785
592 3 24 8 4.8 -11.1912
593 3 25.6 6.4 3.2 -11.3025
594 1 27.2 8 4.8 -11.6533
595 3 28.8 6.4 3.2 -11.4831
596 1 30.4 8 4.8 -11.6364
597 3 32 6.4 3.2 -11.2625
598 1 33.6 8 4.8 -11.648
599 2 35.2 6.4 3.2 -9.85634
600 3 36.8 8 4.8 -11.3593
601 1 38.4 6.4 3.2 -11.5638
602 3 40 8 4.8 -11.0942
603 1 41.6 6.4 3.2 -11.5832
604 1 43.2 8 4.8 -11.6571
605 3 44.8 6.4 3.2 -11.3342
606 1 46.4 8 4.8 -11.822
607 1 48 6.4 3.2 -11.7357
608 3 49.6 8 4.8 -11.0711
609 2 0 9.6 3.2 -9.73018
610 2 1.6 11.2 4.8 -9.60522
611 1 3.2 9.6 3.2 -11.4382
612 3 4.8 11.2 4.8 -11.1923
613 1 6.4 9.6 3.2 -11.6615
614 3 8 11.2 4.8 -11.4663
615 2 9.6 9.6 3.2 -9.83163
616 3 11.2 11.2 4.8 -11.2054
617 1 12.8 9.6 3.2 -11.8085
618 2 14.4 11.2 4.8 -9.87283
619 3 16 9.6 3.2 -11.2002
620 1 17.6 11.2 4.8 -11.8267
621 2 19.2 9.6 3.2 -9.78792
622 1 20.8 11.2 4.8 -11.8424
623 3 22.4 9.6 3.2 -11.4202
624 2 24 11.2 4.8 -9.90189
625 1 25.6 9.6 3.2 -11.8626
626 2 27.2 11.2 4.8 -9.84357
627 3 28.8 9.6 3.2 -11.3601
628 2 30.4 11.2 4.8 -9.57618
629 1 32 9.6 3.2 -11.6489
630 1 33.6 11.2 4.8 -11.5845
631 3 35.2 9.6 3.2 -11.3626
632 2 36.8 11.2 4.8 -9.81081
633 1 38.4 9.6 3.2 -11.7432
634 1 40 11.2 4.8 -11.5867
635 1 41.6 9.6 3.2 -11.4798
636 1 43.2 11.2 4.8 -11.6477
637 3 44.8 9.6 3.2 -11.3317
638 3 46.4 11.2 4.8 -11.0899
639 3 48 9.6 3.2 -11.2062
640 1 49.6 11.2 4.8 -11.6783
641 3 0 12.8 3.2 -11.1429
642 1 1.6 14.4 4.8 -11.6418
643 1 3.2 12.8 3.2 -11.5154
644 2 4.8 14.4 4.8 -9.8554
645 3 6.4 12.8 3.2 -10.9587
646 3 8 14.4 4.8 -11.1378
647 1 9.6 12.8 3.2 -11.6858
648 1 11.2 14.4 4.8 -11.662
649 3 12.8 12.8 3.2 -11.3561
650 3 14.4 14.4 4.8 -11.2854
651 3 16 12.8 3.2 -11.5659
652 3 17.6 14.4 4.8 -11.496
653 3 19.2 12.8 3.2 -11.5066
654 3 20.8 14.4 4.8 -11.4686
655 3 22.4 12.8 3.2 -11.5443
656 2 24 14.4 4.8 -9.93112
657 3 25.6 12.8 3.2 -11.3968
658 2 27.2 14.4 4.8 -9.86573
659 1 28.8 12.8 3.2 -11.7798
660 2 30.4 14.4 4.8 -9.78349
661 1 32 12.8 3.2 -11.5509
662 3 33.6 14.4 4.8 -10.8902
663 3 35.2 12.8 3.2 -11.1216
664 1 36.8 14.4 4.8 -11.5432
665 1 38.4 12.8 3.2 -11.6469
666 1 40 14.4 4.8 -11.7605
667 3 41.6 12.8 3.2 -11.216
668 3 43.2 14.4 4.8 -11.1969
669 3 44.8 12.8 3.2 -11.4423
670 1 46.4 14.4 4.8 -11.7761
671 1 48 12.8 3.2 -11.7446
672 3 49.6 14.4 4.8 -11.002
673 1 0 16 3.2 -11.7481
674 3 1.6 17.6 4.8 -10.9239
675 2 3.2 16 3.2 -9.7553
676 2 4.8 17.6 4.8 -9.87646
677 1 6.4 16 3.2 -11.6133
678 1 8 17.6 4.8 -11.5008
679 1 9.6 16 3.2 -11.4378
680 1 11.2 17.6 4.8 -11.5408
681 3 12.8 16 3.2 -11.3208
682 1 14.4 17.6 4.8 -11.4107
683 2 16 16 3.2 -9.88559
684 3 17.6 17.6 4.8 -11.0238
685 3 19.2 16 3.2 -11.5142
686 3 20.8 17.6 4.8 -11.4462
687 3 22.4 16 3.2 -11.4989
688 1 24 17.6 4.8 -11.5514
689 1 25.6 16 3.2 -11.741
690 1 27.2 17.6 4.8 -11.6007
691 3 28.8 16 3.2 -11.0235
692 3 30.4 17.6 4.8 -11.3049
693 1 32 16 3.2 -11.597
694 1 33.6 17.6 4.8 -11.5369
695 1 35.2 16 3.2 -11.3187
696 1 36.8 17.6 4.8 -11.6214
697 2 38.4 16 3.2 -9.6451
698 3 40 17.6 4.8 -11.1133
699 1 41.6 16 3.2 -11.8032
700 2 43.2 17.6 4.8 -9.94899
701 3 44.8 16 3.2 -11.3448
702 2 46.4 17.6 4.8 -9.84937
703 3 48 16 3.2 -11.2792
704 1 49.6 17.6 4.8 -11.6571
705 1 0 19.2 3.2 -11.6218
706 1 1.6 20.8 4.8 -11.5764
707 1 3.2 19.2 3.2 -11.7426
708 3 4.8 20.8 4.8 -11.2872
709 3 6.4 19.2 3.2 -11.0527
710 2 8 20.8 4.8 -9.75696
711 1 9.6 19.2 3.2 -11.4476
712 2 11.2 20.8 4.8 -9.67022
713 3 12.8 19.2 3.2 -10.947
714 1 14.4 20.8 4.8 -11.597
715 1 16 19.2 3.2 -11.4929
716 1 17.6 20.8 4.8 -11.7712
717 3 19.2 19.2 3.2 -11.4705
718 3 20.8 20.8 4.8 -11.2662
719 2 22.4 19.2 3.2 -9.85754
720 1 24 20.8 4.8 -11.6003
721 1 25.6 19.2 3.2 -11.358
722 2 27.2 20.8 4.8 -9.74968
723 1 28.8 19.2 3.2 -11.8031
724 3 30.4 20.8 4.8 -11.3046
725 3 32 19.2 3.2 -11.0033
726 1 33.6 20.8 4.8 -11.6481
727 1 35.2 19.2 3.2 -11.6752
728 2 36.8 20.8 4.8 -9.9131
729 3 38.4 19.2 3.2 -11.2881
730 2 40 20.8 4.8 -9.8943
731 1 41.6 19.2 3.2 -11.7442
732 2 43.2 20.8 4.8 -9.98516
733 3 44.8 19.2 3.2 -11.3791
734 3 46.4 20.8 4.8 -11.4325
735 2 48 19.2 3.2 -9.99813
736 3 49.6 20.8 4.8 -11.2354
737 1 0 22.4 3.2 -11.6444
738 3 1.6 24 4.8 -11.1432
739 1 3.2 22.4 3.2 -11.6796
740 3 4.8 24 4.8 -11.4211
741 2 6.4 22.4 3.2 -9.75186
742 1 8 24 4.8 -11.7055
743 1 9.6 22.4 3.2 -11.5585
744 1 11.2 24 4.8 -11.6245
745 3 12.8 22.4 3.2 -11.3539
746 1 14.4 24 4.8 -11.6947
747 3 16 22.4 3.2 -11.3755
748 3 17.6 24 4.8 -11.3525
749 3 19.2 22.4 3.2 -11.5793
750 1 20.8 24 4.8 -11.739
751 3 22.4 22.4 3.2 -11.2347
752 3 24 24 4.8 -11.3272
753 1 25.6 22.4 3.2 -11.751
754 3 27.2 24 4.8 -11.453
755 3 28.8 22.4 3.2 -11.1822
756 1 30.4 24 4.8 -11.6778
757 1 32 22.4 3.2 -11.5941
758 1 33.6 24 4.8 -11.5063
759 3 35.2 22.4 3.2 -11.2949
760 1 36.8 24 4.8 -11.6001
761 3 38.4 22.4 3.2 -11.4456
762 2 40 24 4.8 -9.76669
763 3 41.6 22.4 3.2 -11.1494
764 3 43.2 24 4.8 -11.2135
765 1 44.8 22.4 3.2 -11.7926
766 3 46.4 24 4.8 -11.1345
767 3 48 22.4 3.2 -11.4181
768 1 49.6 24 4.8 -11.6818
769 1 0 25.6 3.2 -11.7794
771 3 3.2 25.6 3.2 -11.3198
773 1 6.4 25.6 3.2 -11.811
775 3 9.6 25.6 3.2 -11.1374
777 3 12.8 25.6 3.2 -11.309
779 1 16 25.6 3.2 -11.7213
781 3 19.2 25.6 3.2 -11.4741
783 3 22.4 25.6 3.2 -11.4052
785 1 25.6 25.6 3.2 -11.7614
787 3 28.8 25.6 3.2 -11.3622
789 3 32 25.6 3.2 -11.1163
791 1 35.2 25.6 3.2 -11.7005
793 1 38.4 25.6 3.2 -11.5833
795 1 41.6 25.6 3.2 -11.4715
797 1 44.8 25.6 3.2 -11.6112
799 3 48 25.6 3.2 -11.4339
770 3 1.6 27.2 4.8 -11.5397
801 2 0 28.8 3.2 -9.97078
772 2 4.8 27.2 4.8 -10.0634
803 3 3.2 28.8 3.2 -11.5475
774 3 8 27.2 4.8 -11.3476
805 3 6.4 28.8 3.2 -11.4026
776 1 11.2 27.2 4.8 -11.6739
807 1 9.6 28.8 3.2 -11.7474
778 1 14.4 27.2 4.8 -11.4135
809 3 12.8 28.8 3.2 -11.1466
780 3 17.6 27.2 4.8 -11.2897
811 1 16 28.8 3.2 -11.6772
782 1 20.8 27.2 4.8 -11.8898
813 3 19.2 28.8 3.2 -11.406
784 2 24 27.2 4.8 -9.87427
815 3 22.4 28.8 3.2 -11.5812
817 2 25.6 28.8 3.2 -9.83286
786 1 27.2 27.2 4.8 -11.743
819 3 28.8 28.8 3.2 -11.2182
788 2 30.4 27.2 4.8 -9.78983
821 2 32 28.8 3.2 -9.83156
790 3 33.6 27.2 4.8 -11.1652
823 1 35.2 28.8 3.2 -11.8979
792 2 36.8 27.2 4.8 -9.58335
825 2 38.4 28.8 3.2 -9.83125
794 1 40 27.2 4.8 -11.5776
827 1 41.6 28.8 3.2 -11.6027
796 2 43.2 27.2 4.8 -9.53069
829 2 44.8 28.8 3.2 -9.7374
798 2 46.4 27.2 4.8 -9.91346
831 3 48 28.8 3.2 -11.4734
800 3 49.6 27.2 4.8 -11.36
802 3 1.6 30.4 4.8 -11.4697
833 1 0 32 3.2 -11.7494
804 3 4.8 30.4 4.8 -11.4133
835 2 3.2 32 3.2 -9.7249
806 2 8 30.4 4.8 -9.96435
837 1 6.4 32 3.2 -11.7333
808 1 11.2 30.4 4.8 -11.7023
839 2 9.6 32 3.2 -9.69577
810 1 14.4 30.4 4.8 -11.5392
841 3 12.8 32 3.2 -11.1396
812 3 17.6 30.4 4.8 -11.2052
843 3 16 32 3.2 -11.2757
814 3 20.8 30.4 4.8 -11.4307
845 1 19.2 32 3.2 -11.8221
816 3 24 30.4 4.8 -11.4164
847 1 22.4 32 3.2 -11.8317
849 1 25.6 32 3.2 -11.7735
818 3 27.2 30.4 4.8 -11.1422
851 1 28.8 32 3.2 -11.6314
820 1 30.4 30.4 4.8 -11.6045
853 1 32 32 3.2 -11.6373
822 3 33.6 30.4 4.8 -11.3671
855 3 35.2 32 3.2 -11.0327
824 2 36.8 30.4 4.8 -9.89579
857 1 38.4 32 3.2 -11.7481
826 3 40 30.4 4.8 -11.3416
859 3 41.6 32 3.2 -11.241
828 1 43.2 30.4 4.8 -11.6997
861 2 44.8 32 3.2 -9.90729
830 3 46.4 30.4 4.8 -11.4104
863 3 48 32 3.2 -11.5252
832 3 49.6 30.4 4.8 -11.5294
834 3 1.6 33.6 4.8 -11.2383
865 1 0 35.2 3.2 -11.7683
836 1 4.8 33.6 4.8 -11.6599
867 3 3.2 35.2 3.2 -11.2522
838 3 8 33.6 4.8 -11.0484
869 3 6.4 35.2 3.2 -11.0316
840 1 11.2 33.6 4.8 -11.5591
871 1 9.6 35.2 3.2 -11.452
842 1 14.4 33.6 4.8 -11.6781
873 1 12.8 35.2 3.2 -11.5068
844 3 17.6 33.6 4.8 -11.2755
875 3 16 35.2 3.2 -11.2095
846 2 20.8 33.6 4.8 -9.84368
877 3 19.2 35.2 3.2 -11.3304
848 1 24 33.6 4.8 -11.731
879 3 22.4 35.2 3.2 -11.2316
881 2 25.6 35.2 3.2 -9.83966
850 3 27.2 33.6 4.8 -11.3545
883 3 28.8 35.2 3.2 -11.4429
852 3 30.4 33.6 4.8 -11.3166
885 3 32 35.2 3.2 -11.1638
854 2 33.6 33.6 4.8 -9.93084
887 2 35.2 35.2 3.2 -9.87168
856 1 36.8 33.6 4.8 -11.7598
889 3 38.4 35.2 3.2 -11.0086
858 3 40 33.6 4.8 -11.3972
891 1 41.6 35.2 3.2 -11.5113
860 3 43.2 33.6 4.8 -11.3574
893 1 44.8 35.2 3.2 -11.6483
862 3 46.4 33.6 4.8 -11.592
895 1 48 35.2 3.2 -11.8806
864 3 49.6 33.6 4.8 -11.5903
866 1 1.6 36.8 4.8 -11.8283
897 2 0 38.4 3.2 -9.90663
868 1 4.8 36.8 4.8 -11.6585
899 3 3.2 38.4 3.2 -11.2564
870 1 8 36.8 4.8 -11.5629
901 1 6.4 38.4 3.2 -11.524
872 1 11.2 36.8 4.8 -11.6359
903 1 9.6 38.4 3.2 -11.6055
874 2 14.4 36.8 4.8 -9.69443
905 3 12.8 38.4 3.2 -11.3777
876 1 17.6 36.8 4.8 -11.5209
907 1 16 38.4 3.2 -11.6962
878 1 20.8 36.8 4.8 -11.5434
909 1 19.2 38.4 3.2 -11.448
880 1 24 36.8 4.8 -11.7344
911 1 22.4 38.4 3.2 -11.5382
913 1 25.6 38.4 3.2 -11.7374
882 3 27.2 36.8 4.8 -11.4161
915 3 28.8 38.4 3.2 -11.3579
884 2 30.4 36.8 4.8 -9.91622
917 1 32 38.4 3.2 -11.5012
886 3 33.6 36.8 4.8 -11.254
919 2 35.2 38.4 3.2 -9.84983
888 1 36.8 36.8 4.8 -11.8089
921 2 38.4 38.4 3.2 -9.75613
890 3 40 36.8 4.8 -11.0937
923 1 41.6 38.4 3.2 -11.4066
892 1 43.2 36.8 4.8 -11.4632
925 1 44.8 38.4 3.2 -11.5746
894 3 46.4 36.8 4.8 -11.2952
927 3 48 38.4 3.2 -11.2183
896 3 49.6 36.8 4.8 -11.2543
898 1 1.6 40 4.8 -11.8056
929 2 0 41.6 3.2 -9.79088
900 3 4.8 40 4.8 -11.1011
931 3 3.2 41.6 3.2 -11.4042
902 2 8 40 4.8 -9.80334
933 1 6.4 41.6 3.2 -11.5929
904 2 11.2 40 4.8 -9.94194
935 2 9.6 41.6 3.2 -9.81716
906 3 14.4 40 4.8 -11.3479
937 3 12.8 41.6 3.2 -11.3487
908 1 17.6 40 4.8 -11.5465
939 2 16 41.6 3.2 -9.83245
910 1 20.8 40 4.8 -11.608
941 2 19.2 41.6 3.2 -9.89823
912 3 24 40 4.8 -11.4143
943 3 22.4 41.6 3.2 -11.2627
945 3 25.6 41.6 3.2 -11.3439
914 3 27.2 40 4.8 -11.5122
947 2 28.8 41.6 3.2 -9.8907
916 1 30.4 40 4.8 -11.5364
949 1 32 41.6 3.2 -11.5367
918 1 33.6 40 4.8 -11.5119
951 2 35.2 41.6 3.2 -9.83749
920 3 36.8 40 4.8 -11.1994
953 1 38.4 41.6 3.2 -11.5069
922 1 40 40 4.8 -11.6162
955 1 41.6 41.6 3.2 -11.4448
924 3 43.2 40 4.8 -10.9387
957 1 44.8 41.6 3.2 -11.5713
926 1 46.4 40 4.8 -11.7245
959 3 48 41.6 3.2 -11.2511
928 1 49.6 40 4.8 -11.6869
930 3 1.6 43.2 4.8 -11.2837
961 1 0 44.8 3.2 -11.6664
932 1 4.8 43.2 4.8 -11.6355
963 2 3.2 44.8 3.2 -9.9079
934 1 8 43.2 4.8 -11.5073
965 2 6.4 44.8 3.2 -9.57598
936 1 11.2 43.2 4.8 -11.6732
967 1 9.6 44.8 3.2 -11.6087
938 3 14.4 43.2 4.8 -11.2563
969 3 12.8 44.8 3.2 -11.1229
940 2 17.6 43.2 4.8 -9.91542
971 1 16 44.8 3.2 -11.7982
942 1 20.8 43.2 4.8 -11.8561
973 3 19.2 44.8 3.2 -11.5275
944 3 24 43.2 4.8 -11.3471
975 3 22.4 44.8 3.2 -11.4642
977 2 25.6 44.8 3.2 -9.81753
946 1 27.2 43.2 4.8 -11.7892
979 1 28.8 44.8 3.2 -11.7253
948 3 30.4 43.2 4.8 -11.2961
981 1 32 44.8 3.2 -11.7848
950 2 33.6 43.2 4.8 -9.8886
983 3 35.2 44.8 3.2 -11.3856
952 3 36.8 43.2 4.8 -11.3871
985 1 38.4 44.8 3.2 -11.5296
954 1 40 43.2 4.8 -11.6221
987 3 41.6 44.8 3.2 -11.199
956 2 43.2 43.2 4.8 -9.87765
989 1 44.8 44.8 3.2 -11.6814
958 1 46.4 43.2 4.8 -11.5811
991 3 48 44.8 3.2 -11.1428
960 1 49.6 43.2 4.8 -11.6117
962 2 1.6 46.4 4.8 -9.80327
993 1 0 48 3.2 -11.6647
964 3 4.8 46.4 4.8 -11.1855
995 1 3.2 48 3.2 -11.7634
966 1 8 46.4 4.8 -11.5069
997 1 6.4 48 3.2 -11.5247
968 2 11.2 46.4 4.8 -9.79406
999 3 9.6 48 3.2 -11.2392
970 3 14.4 46.4 4.8 -11.1499
1001 2 12.8 48 3.2 -9.90441
972 3 17.6 46.4 4.8 -11.3793
1003 1 16 48 3.2 -11.6624
974 2 20.8 46.4 4.8 -9.94749
1005 3 19.2 48 3.2 -11.4715
976 2 24 46.4 4.8 -9.8876
1007 3 22.4 48 3.2 -11.5928
1009 3 25.6 48 3.2 -11.2826
978 1 27.2 46.4 4.8 -11.69
1011 1 28.8 48 3.2 -11.7108
980 2 30.4 46.4 4.8 -9.81597
1013 1 32 48 3.2 -11.6305
982 1 33.6 46.4 4.8 -11.7406
1015 3 35.2 48 3.2 -10.8832
984 3 36.8 46.4 4.8 -11.1034
1017 1 38.4 48 3.2 -11.5755
986 1 40 46.4 4.8 -11.6387
1019 2 41.6 48 3.2 -9.89972
988 3 43.2 46.4 4.8 -11.3601
1021 3 44.8 48 3.2 -11.2418
990 1 46.4 46.4 4.8 -11.6477
1023 1 48 48 3.2 -11.7015
992 1 49.6 46.4 4.8 -11.6222
994 1 1.6 49.6 4.8 -11.7816
996 3 4.8 49.6 4.8 -11.1753
998 1 8 49.6 4.8 -11.6311
1000 2 11.2 49.6 4.8 -9.8289
1002 1 14.4 49.6 4.8 -11.7578
1004 2 17.6 49.6 4.8 -9.92638
1006 3 20.8 49.6 4.8 -11.5201
1008 2 24 49.6 4.8 -9.96018
1010 3 27.2 49.6 4.8 -11.4349
1012 3 30.4 49.6 4.8 -11.291
1014 2 33.6 49.6 4.8 -9.57017
1016 1 36.8 49.6 4.8 -11.436
1018 1 40 49.6 4.8 -11.6208
1020 3 43.2 49.6 4.8 -11.2431
1022 1 46.4 49.6 4.8 -11.6685
1024 3 49.6 49.6 4.8 -11.219
1025 2 0 0 6.4 -9.84749
1026 1 1.6 1.6 8 -11.8011
1027 2 3.2 0 6.4 -9.8801
1028 3 4.8 1.6 8 -11.3869
1029 1 6.4 0 6.4 -11.7555
1030 2 8 1.6 8 -9.96767
1031 2 9.6 0 6.4 -9.94354
1032 3 11.2 1.6 8 -11.1297
1033 3 12.8 0 6.4 -11.2992
1034 1 14.4 1.6 8 -11.6569
1035 3 16 0 6.4 -11.4391
1036 2 17.6 1.6 8 -9.68223
1037 1 19.2 0 6.4 -11.6967
1038 1 20.8 1.6 8 -11.597
1039 3 22.4 0 6.4 -11.3654
1040 1 24 1.6 8 -11.5862
1041 3 25.6 0 6.4 -11.3343
1042 3 27.2 1.6 8 -11.1763
1043 2 28.8 0 6.4 -9.94154
1044 1 30.4 1.6 8 -11.6414
1045 3 32 0 6.4 -11.2408
1046 3 33.6 1.6 8 -10.8731
1047 1 35.2 0 6.4 -11.292
1048 2 36.8 1.6 8 -9.55652
1049 1 38.4 0 6.4 -11.5188
1050 1 40 1.6 8 -11.6359
1051 1 41.6 0 6.4 -11.7401
1052 3 43.2 1.6 8 -11.3064
1053 1 44.8 0 6.4 -11.6718
1054 1 46.4 1.6 8 -11.606
1055 3 48 0 6.4 -11.2086
1056 2 49.6 1.6 8 -9.89405
1057 2 0 3.2 6.4 -9.93506
1058 2 1.6 4.8 8 -9.94616
1059 3 3.2 3.2 6.4 -11.34
1060 3 4.8 4.8 8 -11.4474
1061 3 6.4 3.2 6.4 -11.3334
1062 3 8 4.8 8 -11.009
1063 1 9.6 3.2 6.4 -11.7023
1064 1 11.2 4.8 8 -11.3227
1065 1 12.8 3.2 6.4 -11.4791
1066 1 14.4 4.8 8 -11.2912
1067 3 16 3.2 6.4 -11.2199
1068 1 17.6 4.8 8 -11.6806
1069 1 19.2 3.2 6.4 -11.758
1070 3 20.8 4.8 8 -11.0048
1071 3 22.4 3.2 6.4 -11.1007
1072 1 24 4.8 8 -11.4266
1073 1 25.6 3.2 6.4 -11.473
1074 2 27.2 4.8 8 -9.51399
1075 1 28.8 3.2 6.4 -11.6991
1076 2 30.4 4.8 8 -9.76438
1077 3 32 3.2 6.4 -11.1969
1078 1 33.6 4.8 8 -11.63
1079 1 35.2 3.2 6.4 -11.5595
1080 3 36.8 4.8 8 -11.1895
1081 3 38.4 3.2 6.4 -11.1298
1082 2 40 4.8 8 -9.98276
1083 3 41.6 3.2 6.4 -11.4701
1084 3 43.2 4.8 8 -11.4643
1085 1 44.8 3.2 6.4 -11.7565
1086 1 46.4 4.8 8 -11.7978
1087 3 48 3.2 6.4 -11.3112
1088 3 49.6 4.8 8 -11.3523
1089 1 0 6.4 6.4 -11.8046
1090 3 1.6 8 8 -11.2594
1091 1 3.2 6.4 6.4 -11.8105
1092 3 4.8 8 8 -11.3803
1093 1 6.4 6.4 6.4 -11.7645
1094 1 8 8 8 -11.7335
1095 1 9.6 6.4 6.4 -11.5342
1096 2 11.2 8 8 -9.64753
1097 1 12.8 6.4 6.4 -11.4344
1098 2 14.4 8 8 -9.81008
1099 3 16 6.4 6.4 -11.2117
1100 2 17.6 8 8 -9.85861
1101 3 19.2 6.4 6.4 -11.1607
1102 1 20.8 8 8 -11.7535
1103 2 22.4 6.4 6.4 -9.83222