ITEM: TIMESTEP
0
ITEM: NUMBER OF ATOMS
8192
ITEM: BOX BOUNDS pp pp pp
0.0000000000000000e+00 5.1200000000000003e+01
0.0000000000000000e+00 5.1200000000000003e+01
0.0000000000000000e+00 5.1200000000000003e+01
ITEM: ATOMS id type x y z c_eng
1 2 0 0 0 -9.79484
2 1 1.6 1.6 1.6 -11.7333
3 1 3.2 0 0 -11.6117
4 3 4.8 1.6 1.6 -11.3001
5 1 6.4 0 0 -11.7793
6 3 8 1.6 1.6 -11.1951
7 1 9.6 0 0 -11.7023
8 2 11.2 1.6 1.6 -9.8113
9 2 12.8 0 0 -9.83566
10 2 14.4 1.6 1.6 -9.87328
11 3 16 0 0 -11.3761
12 3 17.6 1.6 1.6 -11.3154
13 3 19.2 0 0 -11.4243
14 1 20.8 1.6 1.6 -11.6739
15 1 22.4 0 0 -11.7908
16 2 24 1.6 1.6 -9.84676
17 1 25.6 0 0 -11.8208
18 2 27.2 1.6 1.6 -9.78184
19 1 28.8 0 0 -11.7515
20 3 30.4 1.6 1.6 -11.27
21 1 32 0 0 -11.7839
22 3 33.6 1.6 1.6 -11.2721
23 3 35.2 0 0 -11.2323
24 1 36.8 1.6 1.6 -11.5665
25 1 38.4 0 0 -11.4818
26 2 40 1.6 1.6 -9.70679
27 3 41.6 0 0 -11.1643
28 1 43.2 1.6 1.6 -11.9057
29 3 44.8 0 0 -11.4356
30 3 46.4 1.6 1.6 -11.2955
31 2 48 0 0 -9.96269
32 1 49.6 1.6 1.6 -11.816
33 3 0 3.2 0 -11.3255
34 3 1.6 4.8 1.6 -11.3053
35 1 3.2 3.2 0 -11.7496
36 3 4.8 4.8 1.6 -11.379
37 1 6.4 3.2 0 -11.8236
38 2 8 4.8 1.6 -9.92224
39 1 9.6 3.2 0 -11.7491
40 3 11.2 4.8 1.6 -11.1481
41 1 12.8 3.2 0 -11.801
42 3 14.4 4.8 1.6 -11.2323
43 1 16 3.2 0 -11.8491
44 3 17.6 4.8 1.6 -11.2305
45 1 19.2 3.2 0 -11.7603
46 2 20.8 4.8 1.6 -9.75034
47 1 22.4 3.2 0 -11.7057
48 3 24 4.8 1.6 -11.2251
49 1 25.6 3.2 0 -11.7198
50 2 27.2 4.8 1.6 -9.76444
51 1 28.8 3.2 0 -11.7424
52 3 30.4 4.8 1.6 -11.2654
53 3 32 3.2 0 -11.3289
54 3 33.6 4.8 1.6 -11.3967
55 3 35.2 3.2 0 -11.3395
56 1 36.8 4.8 1.6 -11.6095
57 1 38.4 3.2 0 -11.5798
58 2 40 4.8 1.6 -9.73508
59 3 41.6 3.2 0 -11.3423
60 2 43.2 4.8 1.6 -9.78037
61 3 44.8 3.2 0 -11.452
62 1 46.4 4.8 1.6 -11.8539
63 3 48 3.2 0 -11.2755
64 2 49.6 4.8 1.6 -9.87127
65 3 0 6.4 0 -11.3292
66 1 1.6 8 1.6 -11.6673
67 2 3.2 6.4 0 -9.83391
68 1 4.8 8 1.6 -11.7483
69 3 6.4 6.4 0 -11.4671
70 1 8 8 1.6 -11.8444
71 2 9.6 6.4 0 -9.81729
72 2 11.2 8 1.6 -9.82787
73 1 12.8 6.4 0 -11.7391
74 3 14.4 8 1.6 -11.311
75 1 16 6.4 0 -11.8
76 2 17.6 8 1.6 -9.91558
77 1 19.2 6.4 0 -11.7758
78 2 20.8 8 1.6 -9.80649
79 1 22.4 6.4 0 -11.6446
80 1 24 8 1.6 -11.6181
81 1 25.6 6.4 0 -11.5446
82 3 27.2 8 1.6 -11.08
83 1 28.8 6.4 0 -11.6193
84 2 30.4 8 1.6 -9.64648
85 1 32 6.4 0 -11.7701
86 3 33.6 8 1.6 -11.4323
87 3 35.2 6.4 0 -11.3917
88 2 36.8 8 1.6 -9.85617
89 1 38.4 6.4 0 -11.6901
90 3 40 8 1.6 -11.283
91 1 41.6 6.4 0 -11.7641
92 1 43.2 8 1.6 -11.7517
93 3 44.8 6.4 0 -11.3332
94 1 46.4 8 1.6 -11.8411
95 3 48 6.4 0 -11.3086
96 1 49.6 8 1.6 -11.8089
97 3 0 9.6 0 -11.2048
98 1 1.6 11.2 1.6 -11.719
99 3 3.2 9.6 0 -11.1883
100 1 4.8 11.2 1.6 -11.7484
101 3 6.4 9.6 0 -11.3397
102 1 8 11.2 1.6 -11.8413
103 3 9.6 9.6 0 -11.2363
104 1 11.2 11.2 1.6 -11.8678
105 3 12.8 9.6 0 -11.2997
106 1 14.4 11.2 1.6 -11.8779
107 3 16 9.6 0 -11.3295
108 1 17.6 11.2 1.6 -11.8409
109 2 19.2 9.6 0 -9.83773
110 1 20.8 11.2 1.6 -11.8654
111 2 22.4 9.6 0 -9.80446
112 3 24 11.2 1.6 -11.3063
113 1 25.6 9.6 0 -11.6741
114 3 27.2 11.2 1.6 -11.2435
115 1 28.8 9.6 0 -11.7303
116 3 30.4 11.2 1.6 -11.2045
117 1 32 9.6 0 -11.7706
118 3 33.6 11.2 1.6 -11.2959
119 3 35.2 9.6 0 -11.3873
120 1 36.8 11.2 1.6 -11.6177
121 2 38.4 9.6 0 -9.80673
122 2 40 11.2 1.6 -9.87249
123 2 41.6 9.6 0 -9.88524
124 1 43.2 11.2 1.6 -11.8406
125 3 44.8 9.6 0 -11.2743
126 1 46.4 11.2 1.6 -11.8412
127 3 48 9.6 0 -11.2417
128 1 49.6 11.2 1.6 -11.8122
129 3 0 12.8 0 -11.2429
130 1 1.6 14.4 1.6 -11.8064
131 3 3.2 12.8 0 -11.2048
132 1 4.8 14.4 1.6 -11.822
133 3 6.4 12.8 0 -11.2036
134 1 8 14.4 1.6 -11.8117
135 3 9.6 12.8 0 -11.242
136 1 11.2 14.4 1.6 -11.8414
137 3 12.8 12.8 0 -11.2417
138 1 14.4 14.4 1.6 -11.854
139 3 16 12.8 0 -11.2423
140 1 17.6 14.4 1.6 -11.8616
141 3 19.2 12.8 0 -11.2348
142 3 20.8 14.4 1.6 -11.223
143 2 22.4 12.8 0 -9.89416
144 3 24 14.4 1.6 -11.4117
145 1 25.6 12.8 0 -11.8321
146 3 27.2 14.4 1.6 -11.2036
147 1 28.8 12.8 0 -11.8527
148 3 30.4 14.4 1.6 -11.3914
149 1 32 12.8 0 -11.9127
150 3 33.6 14.4 1.6 -11.4339
151 3 35.2 12.8 0 -11.39
152 3 36.8 14.4 1.6 -11.288
153 2 38.4 12.8 0 -9.86504
154 3 40 14.4 1.6 -11.3749
155 2 41.6 12.8 0 -9.93391
156 2 43.2 14.4 1.6 -9.85679
157 3 44.8 12.8 0 -11.4099
158 1 46.4 14.4 1.6 -11.8944
159 3 48 12.8 0 -11.3387
160 1 49.6 14.4 1.6 -11.7474
161 3 0 16 0 -11.3664
162 3 1.6 17.6 1.6 -11.286
163 3 3.2 16 0 -11.319
164 1 4.8 17.6 1.6 -11.703
165 2 6.4 16 0 -9.77622
166 1 8 17.6 1.6 -11.7667
167 3 9.6 16 0 -11.2039
168 1 11.2 17.6 1.6 -11.8676
169 3 12.8 16 0 -11.2036
170 1 14.4 17.6 1.6 -11.8415
171 3 16 16 0 -11.2384
172 2 17.6 17.6 1.6 -9.77624
173 2 19.2 16 0 -9.82925
174 1 20.8 17.6 1.6 -11.6359
175 1 22.4 16 0 -11.7358
176 3 24 17.6 1.6 -11.1643
177 1 25.6 16 0 -11.8266
178 3 27.2 17.6 1.6 -11.2743
179 1 28.8 16 0 -11.8672
180 3 30.4 17.6 1.6 -11.4434
181 3 32 16 0 -11.4112
182 1 33.6 17.6 1.6 -11.7756
183 2 35.2 16 0 -9.87832
184 2 36.8 17.6 1.6 -9.82943
185 1 38.4 16 0 -11.7223
186 2 40 17.6 1.6 -9.81247
187 1 41.6 16 0 -11.7908
188 1 43.2 17.6 1.6 -11.6798
189 2 44.8 16 0 -9.90382
190 3 46.4 17.6 1.6 -11.3116
191 3 48 16 0 -11.4662
192 2 49.6 17.6 1.6 -9.85683
193 1 0 19.2 0 -11.8534
194 3 1.6 20.8 1.6 -11.2426
195 1 3.2 19.2 0 -11.8039
196 3 4.8 20.8 1.6 -11.1641
197 2 6.4 19.2 0 -9.76693
198 2 8 20.8 1.6 -9.81043
199 3 9.6 19.2 0 -11.3005
200 2 11.2 20.8 1.6 -9.80181
201 3 12.8 19.2 0 -11.2746
202 1 14.4 20.8 1.6 -11.814
203 3 16 19.2 0 -11.2743
204 1 17.6 20.8 1.6 -11.8461
205 2 19.2 19.2 0 -9.85196
206 2 20.8 20.8 1.6 -9.71664
207 1 22.4 19.2 0 -11.6901
208 3 24 20.8 1.6 -11.2016
209 1 25.6 19.2 0 -11.8363
210 2 27.2 20.8 1.6 -9.92073
211 1 28.8 19.2 0 -11.841
212 2 30.4 20.8 1.6 -9.88992
213 3 32 19.2 0 -11.3596
214 1 33.6 20.8 1.6 -11.8539
215 3 35.2 19.2 0 -11.2723
216 3 36.8 20.8 1.6 -11.4815
217 2 38.4 19.2 0 -9.8706
218 3 40 20.8 1.6 -11.4302
219 2 41.6 19.2 0 -9.81512
220 3 43.2 20.8 1.6 -11.2689
221 1 44.8 19.2 0 -11.8155
222 3 46.4 20.8 1.6 -11.2426
223 1 48 19.2 0 -11.8533
224 3 49.6 20.8 1.6 -11.2036
225 1 0 22.4 0 -11.8417
226 3 1.6 24 1.6 -11.2429
227 1 3.2 22.4 0 -11.8119
228 3 4.8 24 1.6 -11.3229
229 1 6.4 22.4 0 -11.7709
230 2 8 24 1.6 -9.87378
231 1 9.6 22.4 0 -11.67
232 3 11.2 24 1.6 -11.2749
233 2 12.8 22.4 0 -9.78707
234 1 14.4 24 1.6 -11.8276
235 3 16 22.4 0 -11.3022
236 1 17.6 24 1.6 -11.8784
237 3 19.2 22.4 0 -11.2929
238 1 20.8 24 1.6 -11.78
239 1 22.4 22.4 0 -11.7497
240 3 24 24 1.6 -11.3304
241 1 25.6 22.4 0 -11.775
242 3 27.2 24 1.6 -11.2935
243 3 28.8 22.4 0 -11.3564
244 1 30.4 24 1.6 -11.8747
245 3 32 22.4 0 -11.274
246 1 33.6 24 1.6 -11.8535
247 3 35.2 22.4 0 -11.4594
248 3 36.8 24 1.6 -11.4194
249 1 38.4 22.4 0 -11.9085
250 3 40 24 1.6 -11.3394
251 1 41.6 22.4 0 -11.8671
252 3 43.2 24 1.6 -11.2423
253 1 44.8 22.4 0 -11.8412
254 3 46.4 24 1.6 -11.2423
255 1 48 22.4 0 -11.8417
256 3 49.6 24 1.6 -11.1223
257 1 0 25.6 0 -11.7804
259 1 3.2 25.6 0 -11.831
261 3 6.4 25.6 0 -11.2818
263 2 9.6 25.6 0 -9.88433
265 3 12.8 25.6 0 -11.3542
267 3 16 25.6 0 -11.2686
269 3 19.2 25.6 0 -11.3122
271 3 22.4 25.6 0 -11.3277
273 1 25.6 25.6 0 -11.6795
275 3 28.8 25.6 0 -11.3001
277 3 32 25.6 0 -11.3097
279 3 35.2 25.6 0 -11.3026
281 1 38.4 25.6 0 -11.8582
283 1 41.6 25.6 0 -11.8441
285 1 44.8 25.6 0 -11.8295
287 1 48 25.6 0 -11.7951
258 3 1.6 27.2 1.6 -11.2311
289 2 0 28.8 0 -9.91009
260 2 4.8 27.2 1.6 -9.87838
291 1 3.2 28.8 0 -11.8095
262 1 8 27.2 1.6 -11.7916
293 1 6.4 28.8 0 -11.7124
264 3 11.2 27.2 1.6 -11.3315
295 3 9.6 28.8 0 -11.2614
266 1 14.4 27.2 1.6 -11.8471
297 3 12.8 28.8 0 -11.2646
268 1 17.6 27.2 1.6 -11.8304
299 2 16 28.8 0 -9.783
270 1 20.8 27.2 1.6 -11.8579
301 3 19.2 28.8 0 -11.318
272 3 24 27.2 1.6 -11.3952
303 2 22.4 28.8 0 -9.92581
305 2 25.6 28.8 0 -9.80858
274 2 27.2 27.2 1.6 -9.90284
307 3 28.8 28.8 0 -11.3002
276 1 30.4 27.2 1.6 -11.8675
309 3 32 28.8 0 -11.2645
278 2 33.6 27.2 1.6 -9.8419
311 1 35.2 28.8 0 -11.7738
280 3 36.8 27.2 1.6 -11.2741
313 1 38.4 28.8 0 -11.8698
282 3 40 27.2 1.6 -11.3399
315 3 41.6 28.8 0 -11.3448
284 3 43.2 27.2 1.6 -11.198
317 2 44.8 28.8 0 -9.83511
286 3 46.4 27.2 1.6 -11.2605
319 3 48 28.8 0 -11.315
288 1 49.6 27.2 1.6 -11.6619
290 3 1.6 30.4 1.6 -11.3059
321 3 0 32 0 -11.4086
292 2 4.8 30.4 1.6 -9.88013
323 2 3.2 32 0 -9.88798
294 1 8 30.4 1.6 -11.7554
325 2 6.4 32 0 -9.87409
296 1 11.2 30.4 1.6 -11.8789
327 3 9.6 32 0 -11.2776
298 1 14.4 30.4 1.6 -11.8121
329 3 12.8 32 0 -11.2702
300 3 17.6 30.4 1.6 -11.3248
331 1 16 32 0 -11.7551
302 2 20.8 30.4 1.6 -9.80241
333 1 19.2 32 0 -11.7027
304 2 24 30.4 1.6 -9.81414
335 1 22.4 32 0 -11.5781
337 2 25.6 32 0 -9.71578
306 2 27.2 30.4 1.6 -9.90688
339 2 28.8 32 0 -9.82971
308 1 30.4 30.4 1.6 -11.8127
341 2 32 32 0 -9.85833
310 2 33.6 30.4 1.6 -9.82872
343 1 35.2 32 0 -11.7304
312 3 36.8 30.4 1.6 -11.261
345 2 38.4 32 0 -9.76285
314 3 40 30.4 1.6 -11.4183
347 3 41.6 32 0 -11.3103
316 1 43.2 30.4 1.6 -11.7486
349 3 44.8 32 0 -11.3821
318 1 46.4 30.4 1.6 -11.6865
351 3 48 32 0 -11.3078
320 1 49.6 30.4 1.6 -11.7082
322 1 1.6 33.6 1.6 -11.7723
353 2 0 35.2 0 -9.88845
324 1 4.8 33.6 1.6 -11.6878
355 2 3.2 35.2 0 -9.75308
326 1 8 33.6 1.6 -11.7316
357 1 6.4 35.2 0 -11.6411
328 2 11.2 33.6 1.6 -9.81299
359 1 9.6 35.2 0 -11.7451
330 3 14.4 33.6 1.6 -11.3519
361 1 12.8 35.2 0 -11.8207
332 3 17.6 33.6 1.6 -11.3402
363 1 16 35.2 0 -11.8411
334 3 20.8 33.6 1.6 -11.1971
365 1 19.2 35.2 0 -11.7801
336 2 24 33.6 1.6 -9.81679
367 1 22.4 35.2 0 -11.6315
369 2 25.6 35.2 0 -9.85811
338 3 27.2 33.6 1.6 -11.3502
371 3 28.8 35.2 0 -11.3654
340 1 30.4 33.6 1.6 -11.823
373 2 32 35.2 0 -9.90769
342 2 33.6 33.6 1.6 -9.8846
375 3 35.2 35.2 0 -11.1324
344 1 36.8 33.6 1.6 -11.5687
377 1 38.4 35.2 0 -11.3286
346 1 40 33.6 1.6 -11.6295
379 1 41.6 35.2 0 -11.5367
348 2 43.2 33.6 1.6 -9.75944
381 3 44.8 35.2 0 -11.3214
350 2 46.4 33.6 1.6 -9.89076
383 1 48 35.2 0 -11.894
352 2 49.6 33.6 1.6 -9.80487
354 2 1.6 36.8 1.6 -9.85625
385 1 0 38.4 0 -11.8689
356 1 4.8 36.8 1.6 -11.6501
387 1 3.2 38.4 0 -11.7754
358 2 8 36.8 1.6 -9.72668
389 1 6.4 38.4 0 -11.6894
360 2 11.2 36.8 1.6 -9.74961
391 1 9.6 38.4 0 -11.7917
362 3 14.4 36.8 1.6 -11.2039
393 1 12.8 38.4 0 -11.8121
364 3 17.6 36.8 1.6 -11.3394
395 1 16 38.4 0 -11.8414
366 3 20.8 36.8 1.6 -11.3749
397 1 19.2 38.4 0 -11.8471
368 2 24 36.8 1.6 -9.91858
399 1 22.4 38.4 0 -11.7626
401 3 25.6 38.4 0 -11.3193
370 3 27.2 36.8 1.6 -11.5141
403 1 28.8 38.4 0 -11.7708
372 2 30.4 36.8 1.6 -9.81834
405 1 32 38.4 0 -11.6935
374 3 33.6 36.8 1.6 -11.2926
407 3 35.2 38.4 0 -11.3275
376 1 36.8 36.8 1.6 -11.7113
409 3 38.4 38.4 0 -11.2026
378 2 40 36.8 1.6 -9.75417
411 3 41.6 38.4 0 -11.3882
380 2 43.2 36.8 1.6 -9.93763
413 3 44.8 38.4 0 -11.4566
382 3 46.4 36.8 1.6 -11.3544
415 1 48 38.4 0 -11.8882
384 3 49.6 36.8 1.6 -11.2597
386 3 1.6 40 1.6 -11.3436
417 1 0 41.6 0 -11.891
388 2 4.8 40 1.6 -9.81134
419 1 3.2 41.6 0 -11.786
390 3 8 40 1.6 -11.261
421 1 6.4 41.6 0 -11.7844
392 3 11.2 40 1.6 -11.2039
423 1 9.6 41.6 0 -11.8116
394 3 14.4 40 1.6 -11.2435
425 1 12.8 41.6 0 -11.8415
396 3 17.6 40 1.6 -11.3269
427 1 16 41.6 0 -11.8412
398 3 20.8 40 1.6 -11.4284
429 1 19.2 41.6 0 -11.8535
400 3 24 40 1.6 -11.406
431 1 22.4 41.6 0 -11.8413
433 1 25.6 41.6 0 -11.8769
402 3 27.2 40 1.6 -11.4022
435 1 28.8 41.6 0 -11.7849
404 1 30.4 40 1.6 -11.551
437 2 32 41.6 0 -9.80035
406 1 33.6 40 1.6 -11.7248
439 3 35.2 41.6 0 -11.3874
408 1 36.8 40 1.6 -11.8108
441 3 38.4 41.6 0 -11.242
410 1 40 40 1.6 -11.9047
443 3 41.6 41.6 0 -11.3346
412 2 43.2 40 1.6 -9.92875
445 3 44.8 41.6 0 -11.4056
414 3 46.4 40 1.6 -11.4485
447 3 48 41.6 0 -11.4111
416 3 49.6 40 1.6 -11.4549
418 2 1.6 43.2 1.6 -9.85678
449 1 0 44.8 0 -11.8047
420 2 4.8 43.2 1.6 -9.83262
451 1 3.2 44.8 0 -11.7654
422 3 8 43.2 1.6 -11.3316
453 1 6.4 44.8 0 -11.853
424 3 11.2 43.2 1.6 -11.2438
455 1 9.6 44.8 0 -11.8406
426 3 14.4 43.2 1.6 -11.1226
457 1 12.8 44.8 0 -11.8704
428 3 17.6 43.2 1.6 -11.3575
459 1 16 44.8 0 -11.8668
430 2 20.8 43.2 1.6 -9.92043
461 1 19.2 44.8 0 -11.8777
432 3 24 43.2 1.6 -11.3392
463 1 22.4 44.8 0 -11.811
465 1 25.6 44.8 0 -11.9133
434 3 27.2 43.2 1.6 -11.4031
467 3 28.8 44.8 0 -11.4018
436 1 30.4 43.2 1.6 -11.8364
469 3 32 44.8 0 -11.4849
438 1 33.6 43.2 1.6 -11.8913
471 3 35.2 44.8 0 -11.387
440 1 36.8 43.2 1.6 -11.8115
473 3 38.4 44.8 0 -11.2048
442 1 40 43.2 1.6 -11.7564
475 3 41.6 44.8 0 -11.2343
444 2 43.2 43.2 1.6 -9.86591
477 2 44.8 44.8 0 -9.82739
446 3 46.4 43.2 1.6 -11.4245
479 1 48 44.8 0 -11.7089
448 3 49.6 43.2 1.6 -11.3924
450 2 1.6 46.4 1.6 -9.73413
481 2 0 48 0 -9.76261
452 2 4.8 46.4 1.6 -9.83165
483 1 3.2 48 0 -11.6384
454 3 8 46.4 1.6 -11.3558
485 1 6.4 48 0 -11.8657
456 3 11.2 46.4 1.6 -11.1987
487 1 9.6 48 0 -11.7697
458 3 14.4 46.4 1.6 -11.2036
489 2 12.8 48 0 -9.73668
460 3 17.6 46.4 1.6 -11.3706
491 1 16 48 0 -11.7107
462 3 20.8 46.4 1.6 -11.3022
493 2 19.2 48 0 -9.83509
464 3 24 46.4 1.6 -11.3078
495 1 22.4 48 0 -11.8412
497 1 25.6 48 0 -11.8104
466 3 27.2 46.4 1.6 -11.4529
499 1 28.8 48 0 -11.8818
468 3 30.4 46.4 1.6 -11.4638
501 2 32 48 0 -9.90793
470 1 33.6 46.4 1.6 -11.8922
503 3 35.2 48 0 -11.3587
472 1 36.8 46.4 1.6 -11.8116
505 3 38.4 48 0 -11.081
474 1 40 46.4 1.6 -11.7568
507 3 41.6 48 0 -11.2407
476 2 43.2 46.4 1.6 -9.80332
509 2 44.8 48 0 -9.86086
478 3 46.4 46.4 1.6 -11.1969
511 1 48 48 0 -11.8269
480 3 49.6 46.4 1.6 -11.2741
482 1 1.6 49.6 1.6 -11.5411
484 3 4.8 49.6 1.6 -11.3004
486 3 8 49.6 1.6 -11.3801
488 2 11.2 49.6 1.6 -9.83945
490 1 14.4 49.6 1.6 -11.682
492 2 17.6 49.6 1.6 -9.81605
494 2 20.8 49.6 1.6 -9.90464
496 3 24 49.6 1.6 -11.261
498 2 27.2 49.6 1.6 -9.84249
500 3 30.4 49.6 1.6 -11.2746
502 1 33.6 49.6 1.6 -11.7534
504 1 36.8 49.6 1.6 -11.71
506 1 40 49.6 1.6 -11.7398
508 1 43.2 49.6 1.6 -11.7972
510 3 46.4 49.6 1.6 -11.4662
512 3 49.6 49.6 1.6 -11.3325
513 3 0 0 3.2 -11.2655
514 1 1.6 1.6 4.8 -11.8568
515 3 3.2 0 3.2 -11.26
516 3 4.8 1.6 4.8 -11.3723
517 1 6.4 0 3.2 -11.9401
518 3 8 1.6 4.8 -11.2756
519 2 9.6 0 3.2 -9.84048
520 2 11.2 1.6 4.8 -9.82194
521 2 12.8 0 3.2 -9.92538
522 2 14.4 1.6 4.8 -9.88449
523 3 16 0 3.2 -11.3623
524 1 17.6 1.6 4.8 -11.7284
525 3 19.2 0 3.2 -11.3423
526 1 20.8 1.6 4.8 -11.7745
527 3 22.4 0 3.2 -11.3646
528 1 24 1.6 4.8 -11.8702
529 2 25.6 0 3.2 -9.89056
530 2 27.2 1.6 4.8 -9.92187
531 1 28.8 0 3.2 -11.8083
532 3 30.4 1.6 4.8 -11.2998
533 1 32 0 3.2 -11.7491
534 3 33.6 1.6 4.8 -11.3336
535 2 35.2 0 3.2 -9.83554
536 3 36.8 1.6 4.8 -11.2954
537 2 38.4 0 3.2 -9.77946
538 3 40 1.6 4.8 -11.3172
539 2 41.6 0 3.2 -9.91366
540 2 43.2 1.6 4.8 -9.81256
541 3 44.8 0 3.2 -11.3818
542 1 46.4 1.6 4.8 -11.7552
543 3 48 0 3.2 -11.3823
544 1 49.6 1.6 4.8 -11.8137
545 3 0 3.2 3.2 -11.3674
546 2 1.6 4.8 4.8 -9.93661
547 2 3.2 3.2 3.2 -9.8791
548 2 4.8 4.8 4.8 -9.96668
549 1 6.4 3.2 3.2 -11.8572
550 3 8 4.8 4.8 -11.2069
551 1 9.6 3.2 3.2 -11.7267
552 1 11.2 4.8 4.8 -11.5774
553 1 12.8 3.2 3.2 -11.6661
554 2 14.4 4.8 4.8 -9.78119
555 1 16 3.2 3.2 -11.7206
556 1 17.6 4.8 4.8 -11.6808
557 1 19.2 3.2 3.2 -11.5613
558 1 20.8 4.8 4.8 -11.7486
559 3 22.4 3.2 3.2 -11.2501
560 1 24 4.8 4.8 -11.8682
561 3 25.6 3.2 3.2 -11.348
562 3 27.2 4.8 4.8 -11.3036
563 1 28.8 3.2 3.2 -11.8022
564 3 30.4 4.8 4.8 -11.3091
565 1 32 3.2 3.2 -11.8775
566 3 33.6 4.8 4.8 -11.3389
567 1 35.2 3.2 3.2 -11.7762
568 3 36.8 4.8 4.8 -11.1849
569 1 38.4 3.2 3.2 -11.5919
570 1 40 4.8 4.8 -11.5883
571 2 41.6 3.2 3.2 -9.83866
572 1 43.2 4.8 4.8 -11.7116
573 3 44.8 3.2 3.2 -11.3351
574 1 46.4 4.8 4.8 -11.7655
575 1 48 3.2 3.2 -11.6555
576 3 49.6 4.8 4.8 -11.2962
577 2 0 6.4 3.2 -9.88682
578 3 1.6 8 4.8 -11.1516
579 1 3.2 6.4 3.2 -11.7306
580 3 4.8 8 4.8 -11.2763
581 3 6.4 6.4 3.2 -11.3646
582 1 8 8 4.8 -11.8445
583 2 9.6 6.4 3.2 -9.81218
584 1 11.2 8 4.8 -11.712
585 1 12.8 6.4 3.2 -11.6773
586 1 14.4 8 4.8 -11.8036
587 3 16 6.4 3.2 -11.2583
588 1 17.6 8 4.8 -11.8119
589 2 19.2 6.4 3.2 -9.83449
590 1 20.8 8 4.8 -11.8661
591 3 22.4 6.4 3.2 -11.3566
592 2 24 8 4.8 -9.82737
593 2 25.6 6.4 3.2 -9.87753
594 3 27.2 8 4.8 -11.4132
595 1 28.8 6.4 3.2 -11.8363
596 3 30.4 8 4.8 -11.328
597 1 32 6.4 3.2 -11.8469
598 3 33.6 8 4.8 -11.3389
599 3 35.2 6.4 3.2 -11.3553
600 3 36.8 8 4.8 -11.2893
601 2 38.4 6.4 3.2 -9.72982
602 2 40 8 4.8 -9.8389
603 1 41.6 6.4 3.2 -11.6022
604 1 43.2 8 4.8 -11.7486
605 3 44.8 6.4 3.2 -11.2026
606 1 46.4 8 4.8 -11.8412
607 3 48 6.4 3.2 -11.2662
608 1 49.6 8 4.8 -11.7992
609 2 0 9.6 3.2 -9.75924
610 2 1.6 11.2 4.8 -9.86227
611 1 3.2 9.6 3.2 -11.5938
612 2 4.8 11.2 4.8 -9.84823
613 3 6.4 9.6 3.2 -11.2673
614 1 8 11.2 4.8 -11.8133
615 3 9.6 9.6 3.2 -11.2748
616 1 11.2 11.2 4.8 -11.8674
617 3 12.8 9.6 3.2 -11.2991
618 1 14.4 11.2 4.8 -11.8773
619 3 16 9.6 3.2 -11.3922
620 1 17.6 11.2 4.8 -11.8673
621 3 19.2 9.6 3.2 -11.3016
622 1 20.8 11.2 4.8 -11.8769
623 3 22.4 9.6 3.2 -11.4105
624 3 24 11.2 4.8 -11.409
625 1 25.6 9.6 3.2 -11.8029
626 3 27.2 11.2 4.8 -11.3424
627 1 28.8 9.6 3.2 -11.8375
628 3 30.4 11.2 4.8 -11.3083
629 1 32 9.6 3.2 -11.8115
630 3 33.6 11.2 4.8 -11.2048
631 1 35.2 9.6 3.2 -11.7636
632 2 36.8 11.2 4.8 -9.62121
633 1 38.4 9.6 3.2 -11.7203
634 3 40 11.2 4.8 -11.2537
635 3 41.6 9.6 3.2 -11.3096
636 1 43.2 11.2 4.8 -11.8778
637 3 44.8 9.6 3.2 -11.2426
638 1 46.4 11.2 4.8 -11.8414
639 3 48 9.6 3.2 -11.2039
640 1 49.6 11.2 4.8 -11.8525
641 3 0 12.8 3.2 -11.1894
642 2 1.6 14.4 4.8 -9.90128
643 2 3.2 12.8 3.2 -9.86981
644 3 4.8 14.4 4.8 -11.4701
645 3 6.4 12.8 3.2 -11.3309
646 1 8 14.4 4.8 -11.8621
647 3 9.6 12.8 3.2 -11.242
648 1 11.2 14.4 4.8 -11.8208
649 3 12.8 12.8 3.2 -11.3387
650 3 14.4 14.4 4.8 -11.3338
651 3 16 12.8 3.2 -11.3613
652 2 17.6 14.4 4.8 -9.90838
653 3 19.2 12.8 3.2 -11.3728
654 1 20.8 14.4 4.8 -11.8945
655 3 22.4 12.8 3.2 -11.4862
656 3 24 14.4 4.8 -11.4304
657 1 25.6 12.8 3.2 -11.9025
658 3 27.2 14.4 4.8 -11.2687
659 1 28.8 12.8 3.2 -11.8411
660 3 30.4 14.4 4.8 -11.2723
661 1 32 12.8 3.2 -11.8675
662 3 33.6 14.4 4.8 -11.1615
663 1 35.2 12.8 3.2 -11.7591
664 3 36.8 14.4 4.8 -11.1639
665 1 38.4 12.8 3.2 -11.7233
666 2 40 14.4 4.8 -9.89008
667 3 41.6 12.8 3.2 -11.4231
668 1 43.2 14.4 4.8 -11.8699
669 3 44.8 12.8 3.2 -11.3086
670 1 46.4 14.4 4.8 -11.8537
671 3 48 12.8 3.2 -11.2045
672 1 49.6 14.4 4.8 -11.7558
673 1 0 16 3.2 -11.7034
674 3 1.6 17.6 4.8 -11.4083
675 3 3.2 16 3.2 -11.4047
676 3 4.8 17.6 4.8 -11.4656
677 3 6.4 16 3.2 -11.3665
678 3 8 17.6 4.8 -11.3867
679 3 9.6 16 3.2 -11.3068
680 1 11.2 17.6 4.8 -11.8195
681 3 12.8 16 3.2 -11.2728
682 1 14.4 17.6 4.8 -11.8021
683 2 16 16 3.2 -9.89722
684 2 17.6 17.6 4.8 -9.79749
685 2 19.2 16 3.2 -9.89903
686 1 20.8 17.6 4.8 -11.7124
687 2 22.4 16 3.2 -9.82203
688 2 24 17.6 4.8 -9.83146
689 1 25.6 16 3.2 -11.87
690 3 27.2 17.6 4.8 -11.3379
691 1 28.8 16 3.2 -11.8929
692 3 30.4 17.6 4.8 -11.3444
693 2 32 16 3.2 -9.84436
694 1 33.6 17.6 4.8 -11.5815
695 1 35.2 16 3.2 -11.6967
696 2 36.8 17.6 4.8 -9.69667
697 1 38.4 16 3.2 -11.738
698 1 40 17.6 4.8 -11.7387
699 2 41.6 16 3.2 -9.80553
700 1 43.2 17.6 4.8 -11.7593
701 3 44.8 16 3.2 -11.2865
702 3 46.4 17.6 4.8 -11.3428
703 2 48 16 3.2 -9.84543
704 2 49.6 17.6 4.8 -9.85503
705 1 0 19.2 3.2 -11.7794
706 3 1.6 20.8 4.8 -11.2417
707 1 3.2 19.2 3.2 -11.7952
708 3 4.8 20.8 4.8 -11.2426
709 1 6.4 19.2 3.2 -11.7616
710 3 8 20.8 4.8 -11.3804
711 3 9.6 19.2 3.2 -11.3467
712 1 11.2 20.8 4.8 -11.8012
713 3 12.8 19.2 3.2 -11.2753
714 1 14.4 20.8 4.8 -11.7548
715 3 16 19.2 3.2 -11.2659
716 1 17.6 20.8 4.8 -11.79
717 2 19.2 19.2 3.2 -9.78958
718 1 20.8 20.8 4.8 -11.6364
719 1 22.4 19.2 3.2 -11.6422
720 2 24 20.8 4.8 -9.77023
721 1 25.6 19.2 3.2 -11.7793
722 3 27.2 20.8 4.8 -11.2789
723 2 28.8 19.2 3.2 -9.88626
724 2 30.4 20.8 4.8 -9.95697
725 3 32 19.2 3.2 -11.359
726 1 33.6 20.8 4.8 -11.7898
727 2 35.2 19.2 3.2 -9.80448
728 1 36.8 20.8 4.8 -11.854
729 2 38.4 19.2 3.2 -9.89094
730 1 40 20.8 4.8 -11.813
731 2 41.6 19.2 3.2 -9.80732
732 3 43.2 20.8 4.8 -11.3195
733 1 44.8 19.2 3.2 -11.7729
734 3 46.4 20.8 4.8 -11.3658
735 1 48 19.2 3.2 -11.8411
736 3 49.6 20.8 4.8 -11.2738
737 1 0 22.4 3.2 -11.8417
738 3 1.6 24 4.8 -11.2414
739 1 3.2 22.4 3.2 -11.8414
740 3 4.8 24 4.8 -11.3394
741 1 6.4 22.4 3.2 -11.82
742 3 8 24 4.8 -11.3408
743 1 9.6 22.4 3.2 -11.7403
744 1 11.2 24 4.8 -11.7931
745 2 12.8 22.4 3.2 -9.75631
746 1 14.4 24 4.8 -11.7955
747 3 16 22.4 3.2 -11.1651
748 1 17.6 24 4.8 -11.8136
749 3 19.2 22.4 3.2 -11.2004
750 1 20.8 24 4.8 -11.6818
751 2 22.4 22.4 3.2 -9.73841
752 3 24 24 4.8 -11.1495
753 1 25.6 22.4 3.2 -11.8323
754 2 27.2 24 4.8 -9.93629
755 3 28.8 22.4 3.2 -11.435
756 1 30.4 24 4.8 -11.8894
757 2 32 22.4 3.2 -9.94425
758 3 33.6 24 4.8 -11.2728
759 3 35.2 22.4 3.2 -11.3943
760 2 36.8 24 4.8 -9.8798
761 3 38.4 22.4 3.2 -11.3853
762 3 40 24 4.8 -11.3227
763 1 41.6 22.4 3.2 -11.863
764 3 43.2 24 4.8 -11.3086
765 1 44.8 22.4 3.2 -11.8411
766 3 46.4 24 4.8 -11.2414
767 1 48 22.4 3.2 -11.8415
768 3 49.6 24 4.8 -11.2423
769 1 0 25.6 3.2 -11.781
771 1 3.2 25.6 3.2 -11.8535
773 3 6.4 25.6 3.2 -11.3658
775 2 9.6 25.6 3.2 -9.93464
777 3 12.8 25.6 3.2 -11.3536
779 3 16 25.6 3.2 -11.2426
781 3 19.2 25.6 3.2 -11.1651
783 2 22.4 25.6 3.2 -9.85482
785 1 25.6 25.6 3.2 -11.8552
787 3 28.8 25.6 3.2 -11.4389
789 3 32 25.6 3.2 -11.2871
791 1 35.2 25.6 3.2 -11.8397
793 1 38.4 25.6 3.2 -11.8534
795 1 41.6 25.6 3.2 -11.8408
797 1 44.8 25.6 3.2 -11.8413
799 1 48 25.6 3.2 -11.7808
770 3 1.6 27.2 4.8 -11.3086
801 2 0 28.8 3.2 -9.80327
772 3 4.8 27.2 4.8 -11.3553
803 1 3.2 28.8 3.2 -11.8802
774 1 8 27.2 4.8 -11.8248
805 3 6.4 28.8 3.2 -11.3081
776 1 11.2 27.2 4.8 -11.8912
807 3 9.6 28.8 3.2 -11.2696
778 1 14.4 27.2 4.8 -11.8667
809 3 12.8 28.8 3.2 -11.3391
780 1 17.6 27.2 4.8 -11.841
811 3 16 28.8 3.2 -11.3284
782 1 20.8 27.2 4.8 -11.7344
813 2 19.2 28.8 3.2 -9.90711
784 3 24 27.2 4.8 -11.3279
815 3 22.4 28.8 3.2 -11.3128
817 1 25.6 28.8 3.2 -11.8429
786 3 27.2 27.2 4.8 -11.4207
819 3 28.8 28.8 3.2 -11.4032
788 1 30.4 27.2 4.8 -11.7673
821 2 32 28.8 3.2 -9.83441
790 3 33.6 27.2 4.8 -11.3188
823 1 35.2 28.8 3.2 -11.8129
792 3 36.8 27.2 4.8 -11.1615
825 1 38.4 28.8 3.2 -11.8776
794 3 40 27.2 4.8 -11.2057
827 1 41.6 28.8 3.2 -11.8295
796 3 43.2 27.2 4.8 -11.2429
829 1 44.8 28.8 3.2 -11.7303
798 3 46.4 27.2 4.8 -11.2748
831 2 48 28.8 3.2 -9.7638
800 3 49.6 27.2 4.8 -11.2682
802 3 1.6 30.4 4.8 -11.3399
833 1 0 32 3.2 -11.732
804 3 4.8 30.4 4.8 -11.4464
835 2 3.2 32 3.2 -9.83015
806 1 8 30.4 4.8 -11.8599
837 3 6.4 32 3.2 -11.4263
808 1 11.2 30.4 4.8 -11.8115
839 2 9.6 32 3.2 -9.8682
810 1 14.4 30.4 4.8 -11.8931
841 3 12.8 32 3.2 -11.2866
812 2 17.6 30.4 4.8 -9.92788
843 3 16 32 3.2 -11.3968
814 2 20.8 30.4 4.8 -9.82837
845 1 19.2 32 3.2 -11.823
816 2 24 30.4 4.8 -9.77493
847 1 22.4 32 3.2 -11.745
849 1 25.6 32 3.2 -11.7149
818 3 27.2 30.4 4.8 -11.288
851 3 28.8 32 3.2 -11.3612
820 1 30.4 30.4 4.8 -11.7475
853 3 32 32 3.2 -11.2814
822 2 33.6 30.4 4.8 -9.82563
855 1 35.2 32 3.2 -11.7197
824 3 36.8 30.4 4.8 -11.2241
857 3 38.4 32 3.2 -11.3324
826 3 40 30.4 4.8 -11.3164
859 2 41.6 32 3.2 -9.91272
828 3 43.2 30.4 4.8 -11.2566
861 2 44.8 32 3.2 -9.76829
830 2 46.4 30.4 4.8 -9.79284
863 1 48 32 3.2 -11.6692
832 3 49.6 30.4 4.8 -11.1899
834 2 1.6 33.6 4.8 -9.83618
865 2 0 35.2 3.2 -9.82123
836 2 4.8 33.6 4.8 -9.93002
867 2 3.2 35.2 3.2 -9.8238
838 3 8 33.6 4.8 -11.3364
869 3 6.4 35.2 3.2 -11.2943
840 1 11.2 33.6 4.8 -11.8106
871 2 9.6 35.2 3.2 -9.82046
842 2 14.4 33.6 4.8 -9.89856
873 1 12.8 35.2 3.2 -11.799
844 3 17.6 33.6 4.8 -11.3805
875 1 16 35.2 3.2 -11.8813
846 3 20.8 33.6 4.8 -11.2276
877 1 19.2 35.2 3.2 -11.8814
848 2 24 33.6 4.8 -9.72094
879 2 22.4 35.2 3.2 -9.86902
881 2 25.6 35.2 3.2 -9.92217
850 1 27.2 33.6 4.8 -11.7426
883 3 28.8 35.2 3.2 -11.4228
852 1 30.4 33.6 4.8 -11.7426
885 2 32 35.2 3.2 -9.81725
854 3 33.6 33.6 4.8 -11.2179
887 1 35.2 35.2 3.2 -11.6715
856 2 36.8 33.6 4.8 -9.6926
889 3 38.4 35.2 3.2 -11.0883
858 2 40 33.6 4.8 -9.86466
891 1 41.6 35.2 3.2 -11.7231
860 2 43.2 33.6 4.8 -9.83396
893 1 44.8 35.2 3.2 -11.8062
862 3 46.4 33.6 4.8 -11.2618
895 1 48 35.2 3.2 -11.7449
864 2 49.6 33.6 4.8 -9.80864
866 1 1.6 36.8 4.8 -11.7895
897 2 0 38.4 3.2 -9.84175
868 1 4.8 36.8 4.8 -11.7485
899 3 3.2 38.4 3.2 -11.176
870 2 8 36.8 4.8 -9.96823
901 2 6.4 38.4 3.2 -9.85313
872 3 11.2 36.8 4.8 -11.2924
903 1 9.6 38.4 3.2 -11.8181
874 3 14.4 36.8 4.8 -11.3628
905 1 12.8 38.4 3.2 -11.8116
876 3 17.6 36.8 4.8 -11.293
907 1 16 38.4 3.2 -11.7959
878 2 20.8 36.8 4.8 -9.87724
909 3 19.2 38.4 3.2 -11.3853
880 1 24 36.8 4.8 -11.8102
911 3 22.4 38.4 3.2 -11.4125
913 2 25.6 38.4 3.2 -9.94443
882 3 27.2 36.8 4.8 -11.3075
915 2 28.8 38.4 3.2 -9.86561
884 1 30.4 36.8 4.8 -11.6297
917 1 32 38.4 3.2 -11.5536
886 3 33.6 36.8 4.8 -11.1908
919 2 35.2 38.4 3.2 -9.78739
888 1 36.8 36.8 4.8 -11.695
921 3 38.4 38.4 3.2 -11.4339
890 3 40 36.8 4.8 -11.4257
923 3 41.6 38.4 3.2 -11.4018
892 3 43.2 36.8 4.8 -11.2686
925 1 44.8 38.4 3.2 -11.8709
894 3 46.4 36.8 4.8 -11.2994
927 1 48 38.4 3.2 -11.7652
896 1 49.6 36.8 4.8 -11.7371
898 1 1.6 40 4.8 -11.8442
929 3 0 41.6 3.2 -11.3666
900 1 4.8 40 4.8 -11.773
931 2 3.2 41.6 3.2 -9.85697
902 3 8 40 4.8 -11.398
933 2 6.4 41.6 3.2 -9.90458
904 3 11.2 40 4.8 -11.3658
935 1 9.6 41.6 3.2 -11.8697
906 3 14.4 40 4.8 -11.0727
937 1 12.8 41.6 3.2 -11.781
908 1 17.6 40 4.8 -11.6297
939 1 16 41.6 3.2 -11.6709
910 1 20.8 40 4.8 -11.8772
941 3 19.2 41.6 3.2 -11.4292
912 1 24 40 4.8 -11.7832
943 2 22.4 41.6 3.2 -9.88371
945 1 25.6 41.6 3.2 -11.8169
914 2 27.2 40 4.8 -9.8558
947 3 28.8 41.6 3.2 -11.2572
916 1 30.4 40 4.8 -11.6876
949 3 32 41.6 3.2 -11.2145
918 2 33.6 40 4.8 -9.81672
951 3 35.2 41.6 3.2 -11.2625
920 1 36.8 40 4.8 -11.7901
953 3 38.4 41.6 3.2 -11.3278
922 3 40 40 4.8 -11.4679
955 2 41.6 41.6 3.2 -9.87731
924 3 43.2 40 4.8 -11.3618
957 1 44.8 41.6 3.2 -11.8917
926 3 46.4 40 4.8 -11.3628
959 3 48 41.6 3.2 -11.4006
928 1 49.6 40 4.8 -11.7986
930 1 1.6 43.2 4.8 -11.8174
961 2 0 44.8 3.2 -9.84871
932 1 4.8 43.2 4.8 -11.813
963 2 3.2 44.8 3.2 -9.81907
934 2 8 43.2 4.8 -9.88153
965 3 6.4 44.8 3.2 -11.3332
936 3 11.2 43.2 4.8 -11.2038
967 1 9.6 44.8 3.2 -11.7437
938 1 14.4 43.2 4.8 -11.5295
969 1 12.8 44.8 3.2 -11.7071
940 2 17.6 43.2 4.8 -9.78216
971 1 16 44.8 3.2 -11.7459
942 2 20.8 43.2 4.8 -9.90989
973 3 19.2 44.8 3.2 -11.3505
944 2 24 43.2 4.8 -9.86359
975 1 22.4 44.8 3.2 -11.8173
977 3 25.6 44.8 3.2 -11.2689
946 1 27.2 43.2 4.8 -11.8386
979 3 28.8 44.8 3.2 -11.4914
948 1 30.4 43.2 4.8 -11.8529
981 3 32 44.8 3.2 -11.4258
950 3 33.6 43.2 4.8 -11.264
983 3 35.2 44.8 3.2 -11.302
952 1 36.8 43.2 4.8 -11.8249
985 2 38.4 44.8 3.2 -9.78468
954 2 40 43.2 4.8 -9.88598
987 1 41.6 44.8 3.2 -11.7027
956 3 43.2 43.2 4.8 -11.2394
989 1 44.8 44.8 3.2 -11.7834
958 3 46.4 43.2 4.8 -11.2604
991 1 48 44.8 3.2 -11.7667
960 1 49.6 43.2 4.8 -11.7317
962 2 1.6 46.4 4.8 -9.76553
993 1 0 48 3.2 -11.6995
964 1 4.8 46.4 4.8 -11.8323
995 1 3.2 48 3.2 -11.6435
966 1 8 46.4 4.8 -11.8268
997 3 6.4 48 3.2 -11.3853
968 1 11.2 46.4 4.8 -11.6911
999 2 9.6 48 3.2 -9.87245
970 3 14.4 46.4 4.8 -11.1532
1001 1 12.8 48 3.2 -11.7514
972 3 17.6 46.4 4.8 -11.1738
1003 1 16 48 3.2 -11.6899
974 2 20.8 46.4 4.8 -9.82814
1005 1 19.2 48 3.2 -11.7825
976 2 24 46.4 4.8 -9.69506
1007 1 22.4 48 3.2 -11.7664
1009 1 25.6 48 3.2 -11.7628
978 1 27.2 46.4 4.8 -11.7353
1011 3 28.8 48 3.2 -11.3712
980 1 30.4 46.4 4.8 -11.9026
1013 3 32 48 3.2 -11.3453
982 1 33.6 46.4 4.8 -11.8774
1015 3 35.2 48 3.2 -11.2758
984 1 36.8 46.4 4.8 -11.8248
1017 3 38.4 48 3.2 -11.2569
986 2 40 46.4 4.8 -9.84578
1019 2 41.6 48 3.2 -9.81964
988 3 43.2 46.4 4.8 -11.2011
1021 1 44.8 48 3.2 -11.7781
990 2 46.4 46.4 4.8 -9.7217
1023 1 48 48 3.2 -11.7992
992 2 49.6 46.4 4.8 -9.77776
994 1 1.6 49.6 4.8 -11.7568
996 3 4.8 49.6 4.8 -11.4603
998 3 8 49.6 4.8 -11.502
1000 3 11.2 49.6 4.8 -11.4307
1002 3 14.4 49.6 4.8 -11.3701
1004 1 17.6 49.6 4.8 -11.7122
1006 3 20.8 49.6 4.8 -11.2537
1008 2 24 49.6 4.8 -9.8121
1010 2 27.2 49.6 4.8 -9.83305
1012 2 30.4 49.6 4.8 -9.87075
1014 1 33.6 49.6 4.8 -11.8036
1016 2 36.8 49.6 4.8 -9.86409
1018 3 40 49.6 4.8 -11.3502
1020 3 43.2 49.6 4.8 -11.2964
1022 2 46.4 49.6 4.8 -9.90572
1024 2 49.6 49.6 4.8 -9.86135
1025 3 0 0 6.4 -11.3406
1026 1 1.6 1.6 8 -11.6646
1027 3 3.2 0 6.4 -11.333
1028 2 4.8 1.6 8 -9.8118
1029 1 6.4 0 6.4 -11.8853
1030 3 8 1.6 8 -11.0815
1031 1 9.6 0 6.4 -11.8635
1032 2 11.2 1.6 8 -9.78518
1033 3 12.8 0 6.4 -11.4597
1034 1 14.4 1.6 8 -11.7747
1035 3 16 0 6.4 -11.458
1036 1 17.6 1.6 8 -11.8088
1037 3 19.2 0 6.4 -11.3932
1038 1 20.8 1.6 8 -11.8667
1039 3 22.4 0 6.4 -11.3605
1040 1 24 1.6 8 -11.7962
1041 3 25.6 0 6.4 -11.1998
1042 3 27.2 1.6 8 -11.1752
1043 2 28.8 0 6.4 -9.86582
1044 3 30.4 1.6 8 -11.2693
1045 2 32 0 6.4 -9.85393
1046 3 33.6 1.6 8 -11.3346
1047 2 35.2 0 6.4 -9.88005
1048 3 36.8 1.6 8 -11.274
1049 1 38.4 0 6.4 -11.8409
1050 3 40 1.6 8 -11.2669
1051 1 41.6 0 6.4 -11.7734
1052 1 43.2 1.6 8 -11.6745
1053 1 44.8 0 6.4 -11.7261
1054 2 46.4 1.6 8 -9.84779
1055 3 48 0 6.4 -11.3972
1056 2 49.6 1.6 8 -9.8033
1057 3 0 3.2 6.4 -11.3351
1058 3 1.6 4.8 8 -11.1894
1059 2 3.2 3.2 6.4 -9.86629
1060 3 4.8 4.8 8 -11.271
1061 1 6.4 3.2 6.4 -11.8205
1062 2 8 4.8 8 -9.80659
1063 1 9.6 3.2 6.4 -11.7067
1064 2 11.2 4.8 8 -9.73103
1065 2 12.8 3.2 6.4 -9.81907
1066 2 14.4 4.8 8 -9.80534
1067 3 16 3.2 6.4 -11.1466
1068 1 17.6 4.8 8 -11.7628
1069 3 19.2 3.2 6.4 -11.1247
1070 1 20.8 4.8 8 -11.841
1071 3 22.4 3.2 6.4 -11.2048
1072 1 24 4.8 8 -11.7604
1073 2 25.6 3.2 6.4 -9.83773
1074 1 27.2 4.8 8 -11.6792
1075 1 28.8 3.2 6.4 -11.8195
1076 3 30.4 4.8 8 -11.2008
1077 1 32 3.2 6.4 -11.8675
1078 3 33.6 4.8 8 -11.2414
1079 1 35.2 3.2 6.4 -11.8674
1080 3 36.8 4.8 8 -11.2045
1081 1 38.4 3.2 6.4 -11.748
1082 2 40 4.8 8 -9.80112
1083 2 41.6 3.2 6.4 -9.81418
1084 1 43.2 4.8 8 -11.786
1085 3 44.8 3.2 6.4 -11.2034
1086 1 46.4 4.8 8 -11.8184
1087 2 48 3.2 6.4 -9.88857
1088 2 49.6 4.8 8 -9.84469
1089 1 0 6.4 6.4 -11.8268
1090 3 1.6 8 8 -11.2674
1091 1 3.2 6.4 6.4 -11.8406
1092 3 4.8 8 8 -11.3266
1093 2 6.4 6.4 6.4 -9.88317
1094 2 8 8 8 -9.86006
1095 2 9.6 6.4 6.4 -9.81469
1096 2 11.2 8 8 -9.87183
1097 2 12.8 6.4 6.4 -9.78707
1098 2 14.4 8 8 -9.86893
1099 2 16 6.4 6.4 -9.86195
1100 1 17.6 8 8 -11.852
1101 3 19.2 6.4 6.4 -11.1648
1102 1 20.8 8 8 -11.8671
1103 3 22.4 6.4 6.4 -11.2751