ITEM: TIMESTEP
0
ITEM: NUMBER OF ATOMS
8192
ITEM: BOX BOUNDS pp pp pp
0.0000000000000000e+00 5.1200000000000003e+01
0.0000000000000000e+00 5.1200000000000003e+01
0.0000000000000000e+00 5.1200000000000003e+01
ITEM: ATOMS id type x y z c_eng
1 2 0 0 0 -9.71501
2 1 1.6 1.6 1.6 -11.6634
3 1 3.2 0 0 -11.5412
4 3 4.8 1.6 1.6 -11.294
5 1 6.4 0 0 -11.7509
6 3 8 1.6 1.6 -11.1951
7 1 9.6 0 0 -11.7295
8 2 11.2 1.6 1.6 -9.81468
9 2 12.8 0 0 -9.77036
10 2 14.4 1.6 1.6 -9.81197
11 2 16 0 0 -9.89981
12 3 17.6 1.6 1.6 -11.2727
13 2 19.2 0 0 -9.88193
14 2 20.8 1.6 1.6 -9.89356
15 1 22.4 0 0 -11.8054
16 2 24 1.6 1.6 -9.89448
17 1 25.6 0 0 -11.7457
18 2 27.2 1.6 1.6 -9.77768
19 1 28.8 0 0 -11.8074
20 3 30.4 1.6 1.6 -11.3238
21 3 32 0 0 -11.3546
22 1 33.6 1.6 1.6 -11.758
23 2 35.2 0 0 -9.64875
24 1 36.8 1.6 1.6 -11.6169
25 2 38.4 0 0 -9.59411
26 2 40 1.6 1.6 -9.73466
27 3 41.6 0 0 -11.2013
28 1 43.2 1.6 1.6 -11.8095
29 3 44.8 0 0 -11.2388
30 1 46.4 1.6 1.6 -11.8028
31 2 48 0 0 -9.86033
32 1 49.6 1.6 1.6 -11.8278
33 3 0 3.2 0 -11.1508
34 1 1.6 4.8 1.6 -11.7138
35 1 3.2 3.2 0 -11.6593
36 3 4.8 4.8 1.6 -11.345
37 1 6.4 3.2 0 -11.795
38 2 8 4.8 1.6 -9.91346
39 1 9.6 3.2 0 -11.7306
40 3 11.2 4.8 1.6 -11.2803
41 1 12.8 3.2 0 -11.7827
42 3 14.4 4.8 1.6 -11.256
43 1 16 3.2 0 -11.8313
44 3 17.6 4.8 1.6 -11.295
45 1 19.2 3.2 0 -11.8286
46 2 20.8 4.8 1.6 -9.81665
47 2 22.4 3.2 0 -9.84388
48 3 24 4.8 1.6 -11.2874
49 1 25.6 3.2 0 -11.6334
50 3 27.2 4.8 1.6 -11.2124
51 1 28.8 3.2 0 -11.7301
52 3 30.4 4.8 1.6 -11.3628
53 2 32 3.2 0 -9.93406
54 3 33.6 4.8 1.6 -11.386
55 3 35.2 3.2 0 -11.1779
56 2 36.8 4.8 1.6 -9.80702
57 1 38.4 3.2 0 -11.5655
58 2 40 4.8 1.6 -9.86618
59 3 41.6 3.2 0 -11.2205
60 2 43.2 4.8 1.6 -9.75994
61 3 44.8 3.2 0 -11.3099
62 1 46.4 4.8 1.6 -11.8437
63 3 48 3.2 0 -11.2348
64 2 49.6 4.8 1.6 -9.80661
65 3 0 6.4 0 -11.2363
66 1 1.6 8 1.6 -11.73
67 2 3.2 6.4 0 -9.78813
68 1 4.8 8 1.6 -11.8515
69 3 6.4 6.4 0 -11.4154
70 1 8 8 1.6 -11.8691
71 2 9.6 6.4 0 -9.79715
72 2 11.2 8 1.6 -9.84521
73 1 12.8 6.4 0 -11.7111
74 2 14.4 8 1.6 -9.88397
75 1 16 6.4 0 -11.7382
76 3 17.6 8 1.6 -11.3152
77 1 19.2 6.4 0 -11.6572
78 1 20.8 8 1.6 -11.7045
79 1 22.4 6.4 0 -11.5283
80 2 24 8 1.6 -9.71896
81 1 25.6 6.4 0 -11.5662
82 3 27.2 8 1.6 -11.2373
83 1 28.8 6.4 0 -11.7692
84 3 30.4 8 1.6 -11.3387
85 3 32 6.4 0 -11.4367
86 3 33.6 8 1.6 -11.4622
87 3 35.2 6.4 0 -11.4091
88 2 36.8 8 1.6 -9.84734
89 1 38.4 6.4 0 -11.6844
90 3 40 8 1.6 -11.233
91 1 41.6 6.4 0 -11.6964
92 1 43.2 8 1.6 -11.7864
93 3 44.8 6.4 0 -11.2396
94 1 46.4 8 1.6 -11.8117
95 3 48 6.4 0 -11.3083
96 1 49.6 8 1.6 -11.8417
97 3 0 9.6 0 -11.242
98 1 1.6 11.2 1.6 -11.8119
99 3 3.2 9.6 0 -11.3068
100 1 4.8 11.2 1.6 -11.8118
101 3 6.4 9.6 0 -11.3392
102 1 8 11.2 1.6 -11.8415
103 3 9.6 9.6 0 -11.2361
104 1 11.2 11.2 1.6 -11.8679
105 3 12.8 9.6 0 -11.2687
106 1 14.4 11.2 1.6 -11.8673
107 3 16 9.6 0 -11.2993
108 1 17.6 11.2 1.6 -11.8782
109 3 19.2 9.6 0 -11.1975
110 1 20.8 11.2 1.6 -11.8368
111 2 22.4 9.6 0 -9.63083
112 1 24 11.2 1.6 -11.5975
113 1 25.6 9.6 0 -11.5842
114 3 27.2 11.2 1.6 -11.1247
115 1 28.8 9.6 0 -11.8526
116 3 30.4 11.2 1.6 -11.2417
117 1 32 9.6 0 -11.9447
118 3 33.6 11.2 1.6 -11.2922
119 3 35.2 9.6 0 -11.4075
120 1 36.8 11.2 1.6 -11.5485
121 2 38.4 9.6 0 -9.73001
122 1 40 11.2 1.6 -11.6818
123 2 41.6 9.6 0 -9.7899
124 1 43.2 11.2 1.6 -11.8082
125 3 44.8 9.6 0 -11.2748
126 1 46.4 11.2 1.6 -11.8413
127 3 48 9.6 0 -11.2414
128 1 49.6 11.2 1.6 -11.8417
129 3 0 12.8 0 -11.242
130 1 1.6 14.4 1.6 -11.8444
131 3 3.2 12.8 0 -11.2036
132 1 4.8 14.4 1.6 -11.8368
133 3 6.4 12.8 0 -11.2417
134 1 8 14.4 1.6 -11.8413
135 3 9.6 12.8 0 -11.2417
136 1 11.2 14.4 1.6 -11.8414
137 3 12.8 12.8 0 -11.2414
138 1 14.4 14.4 1.6 -11.8543
139 3 16 12.8 0 -11.2417
140 1 17.6 14.4 1.6 -11.8422
141 3 19.2 12.8 0 -11.3083
142 2 20.8 14.4 1.6 -9.79541
143 3 22.4 12.8 0 -11.2875
144 2 24 14.4 1.6 -9.89135
145 1 25.6 12.8 0 -11.6935
146 3 27.2 14.4 1.6 -11.1238
147 1 28.8 12.8 0 -11.8529
148 3 30.4 14.4 1.6 -11.3027
149 1 32 12.8 0 -11.8946
150 2 33.6 14.4 1.6 -9.87056
151 3 35.2 12.8 0 -11.397
152 2 36.8 14.4 1.6 -9.80774
153 2 38.4 12.8 0 -9.80916
154 3 40 14.4 1.6 -11.339
155 2 41.6 12.8 0 -9.86523
156 2 43.2 14.4 1.6 -9.85748
157 3 44.8 12.8 0 -11.3855
158 1 46.4 14.4 1.6 -11.8441
159 3 48 12.8 0 -11.3081
160 1 49.6 14.4 1.6 -11.8268
161 3 0 16 0 -11.429
162 2 1.6 17.6 1.6 -9.91479
163 3 3.2 16 0 -11.3823
164 2 4.8 17.6 1.6 -9.88202
165 3 6.4 16 0 -11.3349
166 1 8 17.6 1.6 -11.7928
167 3 9.6 16 0 -11.242
168 1 11.2 17.6 1.6 -11.8419
169 3 12.8 16 0 -11.2417
170 1 14.4 17.6 1.6 -11.8418
171 3 16 16 0 -11.2738
172 2 17.6 17.6 1.6 -9.73809
173 3 19.2 16 0 -11.2706
174 1 20.8 17.6 1.6 -11.749
175 2 22.4 16 0 -9.93634
176 3 24 17.6 1.6 -11.2838
177 1 25.6 16 0 -11.8212
178 2 27.2 17.6 1.6 -9.67758
179 1 28.8 16 0 -11.7322
180 2 30.4 17.6 1.6 -9.79401
181 2 32 16 0 -9.76951
182 1 33.6 17.6 1.6 -11.806
183 2 35.2 16 0 -9.87254
184 2 36.8 17.6 1.6 -9.89238
185 1 38.4 16 0 -11.78
186 3 40 17.6 1.6 -11.2199
187 1 41.6 16 0 -11.7642
188 1 43.2 17.6 1.6 -11.746
189 2 44.8 16 0 -9.87951
190 2 46.4 17.6 1.6 -9.92235
191 3 48 16 0 -11.422
192 3 49.6 17.6 1.6 -11.3401
193 1 0 19.2 0 -11.8531
194 3 1.6 20.8 1.6 -11.2036
195 1 3.2 19.2 0 -11.8328
196 3 4.8 20.8 1.6 -11.3079
197 2 6.4 19.2 0 -9.84331
198 2 8 20.8 1.6 -9.87164
199 3 9.6 19.2 0 -11.2649
200 2 11.2 20.8 1.6 -9.83742
201 3 12.8 19.2 0 -11.2743
202 1 14.4 20.8 1.6 -11.8418
203 3 16 19.2 0 -11.274
204 1 17.6 20.8 1.6 -11.8147
205 2 19.2 19.2 0 -9.74649
206 1 20.8 20.8 1.6 -11.7127
207 2 22.4 19.2 0 -9.82779
208 3 24 20.8 1.6 -11.3568
209 1 25.6 19.2 0 -11.8345
210 3 27.2 20.8 1.6 -11.3172
211 1 28.8 19.2 0 -11.7019
212 2 30.4 20.8 1.6 -9.86834
213 3 32 19.2 0 -11.2333
214 1 33.6 20.8 1.6 -11.8538
215 3 35.2 19.2 0 -11.2729
216 3 36.8 20.8 1.6 -11.4686
217 1 38.4 19.2 0 -11.8322
218 3 40 20.8 1.6 -11.3866
219 1 41.6 19.2 0 -11.7538
220 3 43.2 20.8 1.6 -11.3589
221 2 44.8 19.2 0 -9.83232
222 3 46.4 20.8 1.6 -11.3613
223 1 48 19.2 0 -11.8585
224 3 49.6 20.8 1.6 -11.2423
225 1 0 22.4 0 -11.8417
226 3 1.6 24 1.6 -11.2417
227 1 3.2 22.4 0 -11.8117
228 3 4.8 24 1.6 -11.3581
229 1 6.4 22.4 0 -11.7836
230 2 8 24 1.6 -9.95225
231 1 9.6 22.4 0 -11.79
232 3 11.2 24 1.6 -11.4692
233 2 12.8 22.4 0 -9.88346
234 1 14.4 24 1.6 -11.8535
235 3 16 22.4 0 -11.2039
236 1 17.6 24 1.6 -11.8417
237 3 19.2 22.4 0 -11.1654
238 1 20.8 24 1.6 -11.8271
239 2 22.4 22.4 0 -9.85913
240 3 24 24 1.6 -11.3949
241 1 25.6 22.4 0 -11.7747
242 3 27.2 24 1.6 -11.4099
243 3 28.8 22.4 0 -11.347
244 1 30.4 24 1.6 -11.8746
245 3 32 22.4 0 -11.2355
246 1 33.6 24 1.6 -11.818
247 2 35.2 22.4 0 -9.91355
248 3 36.8 24 1.6 -11.398
249 1 38.4 22.4 0 -11.8743
250 3 40 24 1.6 -11.3394
251 1 41.6 22.4 0 -11.8406
252 3 43.2 24 1.6 -11.2423
253 1 44.8 22.4 0 -11.8676
254 3 46.4 24 1.6 -11.2414
255 1 48 22.4 0 -11.8415
256 3 49.6 24 1.6 -11.2417
257 1 0 25.6 0 -11.8117
259 1 3.2 25.6 0 -11.8415
261 2 6.4 25.6 0 -9.90771
263 3 9.6 25.6 0 -11.47
265 3 12.8 25.6 0 -11.4613
267 3 16 25.6 0 -11.2051
269 3 19.2 25.6 0 -11.1633
271 3 22.4 25.6 0 -11.3827
273 2 25.6 25.6 0 -9.71527
275 3 28.8 25.6 0 -11.388
277 3 32 25.6 0 -11.3097
279 3 35.2 25.6 0 -11.2979
281 1 38.4 25.6 0 -11.8582
283 1 41.6 25.6 0 -11.8444
285 1 44.8 25.6 0 -11.815
287 1 48 25.6 0 -11.8416
258 3 1.6 27.2 1.6 -11.3089
289 1 0 28.8 0 -11.8646
260 3 4.8 27.2 1.6 -11.3823
291 1 3.2 28.8 0 -11.8578
262 1 8 27.2 1.6 -11.866
293 3 6.4 28.8 0 -11.3074
264 3 11.2 27.2 1.6 -11.3644
295 3 9.6 28.8 0 -11.3027
266 1 14.4 27.2 1.6 -11.8778
297 3 12.8 28.8 0 -11.3662
268 1 17.6 27.2 1.6 -11.8538
299 3 16 28.8 0 -11.2967
270 1 20.8 27.2 1.6 -11.8825
301 2 19.2 28.8 0 -9.87304
272 3 24 27.2 1.6 -11.4162
303 2 22.4 28.8 0 -9.88629
305 1 25.6 28.8 0 -11.7164
274 3 27.2 27.2 1.6 -11.4398
307 3 28.8 28.8 0 -11.3278
276 1 30.4 27.2 1.6 -11.8781
309 3 32 28.8 0 -11.3279
278 2 33.6 27.2 1.6 -9.87574
311 2 35.2 28.8 0 -9.88077
280 3 36.8 27.2 1.6 -11.3318
313 1 38.4 28.8 0 -11.8488
282 3 40 27.2 1.6 -11.3394
315 3 41.6 28.8 0 -11.3224
284 3 43.2 27.2 1.6 -11.2665
317 2 44.8 28.8 0 -9.86296
286 3 46.4 27.2 1.6 -11.3342
319 2 48 28.8 0 -9.82116
288 3 49.6 27.2 1.6 -11.2963
290 3 1.6 30.4 1.6 -11.2905
321 3 0 32 0 -11.3769
292 2 4.8 30.4 1.6 -9.9056
323 2 3.2 32 0 -9.88219
294 1 8 30.4 1.6 -11.8301
325 2 6.4 32 0 -9.93382
296 1 11.2 30.4 1.6 -11.906
327 3 9.6 32 0 -11.3992
298 1 14.4 30.4 1.6 -11.8507
329 3 12.8 32 0 -11.3301
300 3 17.6 30.4 1.6 -11.2613
331 1 16 32 0 -11.8271
302 2 20.8 30.4 1.6 -9.82534
333 1 19.2 32 0 -11.6836
304 3 24 30.4 1.6 -11.3555
335 1 22.4 32 0 -11.6386
337 2 25.6 32 0 -9.84235
306 3 27.2 30.4 1.6 -11.419
339 3 28.8 32 0 -11.3209
308 1 30.4 30.4 1.6 -11.8289
341 2 32 32 0 -9.8839
310 2 33.6 30.4 1.6 -9.92444
343 1 35.2 32 0 -11.8107
312 3 36.8 30.4 1.6 -11.2663
345 1 38.4 32 0 -11.6672
314 3 40 30.4 1.6 -11.3799
347 2 41.6 32 0 -9.81889
316 2 43.2 30.4 1.6 -9.92831
349 3 44.8 32 0 -11.4538
318 1 46.4 30.4 1.6 -11.739
351 3 48 32 0 -11.4013
320 1 49.6 30.4 1.6 -11.7125
322 1 1.6 33.6 1.6 -11.7455
353 1 0 35.2 0 -11.8048
324 1 4.8 33.6 1.6 -11.6922
355 2 3.2 35.2 0 -9.72908
326 3 8 33.6 1.6 -11.3159
357 1 6.4 35.2 0 -11.7288
328 2 11.2 33.6 1.6 -9.92459
359 1 9.6 35.2 0 -11.8813
330 3 14.4 33.6 1.6 -11.3557
361 1 12.8 35.2 0 -11.8535
332 3 17.6 33.6 1.6 -11.3102
363 1 16 35.2 0 -11.8412
334 3 20.8 33.6 1.6 -11.0832
365 1 19.2 35.2 0 -11.784
336 2 24 33.6 1.6 -9.80767
367 1 22.4 35.2 0 -11.6902
369 3 25.6 35.2 0 -11.3499
338 3 27.2 33.6 1.6 -11.3486
371 3 28.8 35.2 0 -11.4234
340 1 30.4 33.6 1.6 -11.817
373 2 32 35.2 0 -9.90413
342 3 33.6 33.6 1.6 -11.4317
375 3 35.2 35.2 0 -11.4012
344 2 36.8 33.6 1.6 -9.83604
377 2 38.4 35.2 0 -9.70044
346 1 40 33.6 1.6 -11.6186
379 1 41.6 35.2 0 -11.5087
348 2 43.2 33.6 1.6 -9.81938
381 3 44.8 35.2 0 -11.3257
350 3 46.4 33.6 1.6 -11.4259
383 1 48 35.2 0 -11.8545
352 2 49.6 33.6 1.6 -9.82325
354 3 1.6 36.8 1.6 -11.2458
385 1 0 38.4 0 -11.836
356 1 4.8 36.8 1.6 -11.6476
387 1 3.2 38.4 0 -11.7827
358 3 8 36.8 1.6 -11.3564
389 1 6.4 38.4 0 -11.7364
360 3 11.2 36.8 1.6 -11.274
391 1 9.6 38.4 0 -11.8119
362 3 14.4 36.8 1.6 -11.2417
393 1 12.8 38.4 0 -11.8417
364 3 17.6 36.8 1.6 -11.3063
395 1 16 38.4 0 -11.8414
366 2 20.8 36.8 1.6 -9.85202
397 1 19.2 38.4 0 -11.8539
368 2 24 36.8 1.6 -9.84822
399 1 22.4 38.4 0 -11.7818
401 1 25.6 38.4 0 -11.7736
370 2 27.2 36.8 1.6 -9.92823
403 1 28.8 38.4 0 -11.7289
372 2 30.4 36.8 1.6 -9.92165
405 1 32 38.4 0 -11.7772
374 3 33.6 36.8 1.6 -11.4242
407 3 35.2 38.4 0 -11.3923
376 1 36.8 36.8 1.6 -11.8298
409 3 38.4 38.4 0 -11.2001
378 2 40 36.8 1.6 -9.76301
411 3 41.6 38.4 0 -11.2895
380 2 43.2 36.8 1.6 -9.8871
413 2 44.8 38.4 0 -9.9341
382 3 46.4 36.8 1.6 -11.3632
415 1 48 38.4 0 -11.825
384 3 49.6 36.8 1.6 -11.193
386 3 1.6 40 1.6 -11.3749
417 1 0 41.6 0 -11.88
388 2 4.8 40 1.6 -9.85194
419 1 3.2 41.6 0 -11.8565
390 3 8 40 1.6 -11.3249
421 1 6.4 41.6 0 -11.8118
392 3 11.2 40 1.6 -11.2417
423 1 9.6 41.6 0 -11.8116
394 3 14.4 40 1.6 -11.2423
425 1 12.8 41.6 0 -11.8415
396 3 17.6 40 1.6 -11.3271
427 1 16 41.6 0 -11.8119
398 3 20.8 40 1.6 -11.4281
429 1 19.2 41.6 0 -11.8471
400 3 24 40 1.6 -11.2865
431 1 22.4 41.6 0 -11.8779
433 1 25.6 41.6 0 -11.841
402 2 27.2 40 1.6 -9.73098
435 1 28.8 41.6 0 -11.7435
404 1 30.4 40 1.6 -11.6392
437 3 32 41.6 0 -11.2933
406 1 33.6 40 1.6 -11.8492
439 3 35.2 41.6 0 -11.3428
408 1 36.8 40 1.6 -11.7562
441 2 38.4 41.6 0 -9.73565
410 1 40 40 1.6 -11.7797
443 3 41.6 41.6 0 -11.2604
412 3 43.2 40 1.6 -11.3564
445 3 44.8 41.6 0 -11.3418
414 3 46.4 40 1.6 -11.2904
447 2 48 41.6 0 -9.8333
416 3 49.6 40 1.6 -11.3289
418 2 1.6 43.2 1.6 -9.85797
449 1 0 44.8 0 -11.8157
420 3 4.8 43.2 1.6 -11.3752
451 1 3.2 44.8 0 -11.8772
422 3 8 43.2 1.6 -11.4403
453 1 6.4 44.8 0 -11.9051
424 3 11.2 43.2 1.6 -11.3394
455 1 9.6 44.8 0 -11.8137
426 3 14.4 43.2 1.6 -11.242
457 1 12.8 44.8 0 -11.8149
428 3 17.6 43.2 1.6 -11.2694
459 1 16 44.8 0 -11.8658
430 3 20.8 43.2 1.6 -11.3868
461 1 19.2 44.8 0 -11.8367
432 3 24 43.2 1.6 -11.4197
463 1 22.4 44.8 0 -11.8407
465 1 25.6 44.8 0 -11.8933
434 3 27.2 43.2 1.6 -11.3365
467 2 28.8 44.8 0 -9.8559
436 1 30.4 43.2 1.6 -11.7896
469 3 32 44.8 0 -11.43
438 1 33.6 43.2 1.6 -11.8465
471 3 35.2 44.8 0 -11.3622
440 1 36.8 43.2 1.6 -11.784
473 3 38.4 44.8 0 -11.1248
442 1 40 43.2 1.6 -11.6956
475 3 41.6 44.8 0 -11.2352
444 2 43.2 43.2 1.6 -9.81915
477 2 44.8 44.8 0 -9.80761
446 2 46.4 43.2 1.6 -9.81223
479 1 48 44.8 0 -11.6948
448 2 49.6 43.2 1.6 -9.8165
450 3 1.6 46.4 1.6 -11.3214
481 2 0 48 0 -9.85449
452 3 4.8 46.4 1.6 -11.4056
483 1 3.2 48 0 -11.6946
454 3 8 46.4 1.6 -11.4133
485 1 6.4 48 0 -11.8639
456 3 11.2 46.4 1.6 -11.2259
487 1 9.6 48 0 -11.7135
458 3 14.4 46.4 1.6 -11.2694
489 2 12.8 48 0 -9.75118
460 3 17.6 46.4 1.6 -11.3353
491 2 16 48 0 -9.85134
462 3 20.8 46.4 1.6 -11.2743
493 2 19.2 48 0 -9.87716
464 3 24 46.4 1.6 -11.2745
495 1 22.4 48 0 -11.8138
497 1 25.6 48 0 -11.7831
466 3 27.2 46.4 1.6 -11.3138
499 1 28.8 48 0 -11.8019
468 1 30.4 46.4 1.6 -11.7808
501 3 32 48 0 -11.3733
470 1 33.6 46.4 1.6 -11.8672
503 3 35.2 48 0 -11.1959
472 1 36.8 46.4 1.6 -11.8116
505 2 38.4 48 0 -9.70728
474 1 40 46.4 1.6 -11.7735
507 3 41.6 48 0 -11.2011
476 2 43.2 46.4 1.6 -9.80332
509 2 44.8 48 0 -9.78733
478 3 46.4 46.4 1.6 -11.1975
511 1 48 48 0 -11.7443
480 3 49.6 46.4 1.6 -11.2591
482 1 1.6 49.6 1.6 -11.6542
484 2 4.8 49.6 1.6 -9.82978
486 3 8 49.6 1.6 -11.3065
488 2 11.2 49.6 1.6 -9.71218
490 1 14.4 49.6 1.6 -11.6697
492 2 17.6 49.6 1.6 -9.87869
494 2 20.8 49.6 1.6 -9.89218
496 3 24 49.6 1.6 -11.1884
498 2 27.2 49.6 1.6 -9.74977
500 3 30.4 49.6 1.6 -11.2975
502 1 33.6 49.6 1.6 -11.7879
504 1 36.8 49.6 1.6 -11.7195
506 1 40 49.6 1.6 -11.7744
508 1 43.2 49.6 1.6 -11.7563
510 3 46.4 49.6 1.6 -11.2671
512 3 49.6 49.6 1.6 -11.4092
513 3 0 0 3.2 -11.3548
514 1 1.6 1.6 4.8 -11.8255
515 3 3.2 0 3.2 -11.2735
516 3 4.8 1.6 4.8 -11.3727
517 1 6.4 0 3.2 -11.8744
518 3 8 1.6 4.8 -11.2363
519 2 9.6 0 3.2 -9.7378
520 3 11.2 1.6 4.8 -11.2295
521 1 12.8 0 3.2 -11.7311
522 2 14.4 1.6 4.8 -9.89837
523 3 16 0 3.2 -11.2797
524 1 17.6 1.6 4.8 -11.6939
525 2 19.2 0 3.2 -9.87411
526 1 20.8 1.6 4.8 -11.7438
527 2 22.4 0 3.2 -9.89632
528 1 24 1.6 4.8 -11.847
529 2 25.6 0 3.2 -9.84545
530 2 27.2 1.6 4.8 -9.89896
531 1 28.8 0 3.2 -11.8019
532 3 30.4 1.6 4.8 -11.3879
533 2 32 0 3.2 -9.88798
534 3 33.6 1.6 4.8 -11.313
535 2 35.2 0 3.2 -9.80625
536 2 36.8 1.6 4.8 -9.83756
537 2 38.4 0 3.2 -9.80492
538 2 40 1.6 4.8 -9.82255
539 2 41.6 0 3.2 -9.81339
540 1 43.2 1.6 4.8 -11.6456
541 2 44.8 0 3.2 -9.75623
542 1 46.4 1.6 4.8 -11.743
543 3 48 0 3.2 -11.3627
544 1 49.6 1.6 4.8 -11.8206
545 3 0 3.2 3.2 -11.3287
546 2 1.6 4.8 4.8 -9.85419
547 3 3.2 3.2 3.2 -11.3156
548 3 4.8 4.8 4.8 -11.4492
549 1 6.4 3.2 3.2 -11.886
550 3 8 4.8 4.8 -11.2859
551 1 9.6 3.2 3.2 -11.8325
552 2 11.2 4.8 4.8 -9.91053
553 1 12.8 3.2 3.2 -11.754
554 2 14.4 4.8 4.8 -9.88514
555 1 16 3.2 3.2 -11.7206
556 1 17.6 4.8 4.8 -11.7291
557 1 19.2 3.2 3.2 -11.6143
558 1 20.8 4.8 4.8 -11.7587
559 3 22.4 3.2 3.2 -11.3036
560 1 24 4.8 4.8 -11.8601
561 3 25.6 3.2 3.2 -11.3792
562 2 27.2 4.8 4.8 -9.90105
563 1 28.8 3.2 3.2 -11.8015
564 3 30.4 4.8 4.8 -11.3068
565 1 32 3.2 3.2 -11.8485
566 3 33.6 4.8 4.8 -11.3089
567 2 35.2 3.2 3.2 -9.80213
568 3 36.8 4.8 4.8 -11.2713
569 1 38.4 3.2 3.2 -11.7041
570 2 40 4.8 4.8 -9.86684
571 2 41.6 3.2 3.2 -9.86417
572 1 43.2 4.8 4.8 -11.7625
573 3 44.8 3.2 3.2 -11.1595
574 1 46.4 4.8 4.8 -11.7844
575 2 48 3.2 3.2 -9.82942
576 2 49.6 4.8 4.8 -9.85076
577 2 0 6.4 3.2 -9.84667
578 3 1.6 8 4.8 -11.2151
579 1 3.2 6.4 3.2 -11.7421
580 3 4.8 8 4.8 -11.2475
581 3 6.4 6.4 3.2 -11.3578
582 1 8 8 4.8 -11.8228
583 3 9.6 6.4 3.2 -11.3925
584 1 11.2 8 4.8 -11.8455
585 2 12.8 6.4 3.2 -9.91475
586 1 14.4 8 4.8 -11.87
587 3 16 6.4 3.2 -11.3879
588 1 17.6 8 4.8 -11.8776
589 3 19.2 6.4 3.2 -11.2499
590 1 20.8 8 4.8 -11.8412
591 2 22.4 6.4 3.2 -9.89223
592 2 24 8 4.8 -9.83874
593 2 25.6 6.4 3.2 -9.88059
594 3 27.2 8 4.8 -11.3575
595 1 28.8 6.4 3.2 -11.8819
596 3 30.4 8 4.8 -11.3061
597 1 32 6.4 3.2 -11.8775
598 3 33.6 8 4.8 -11.2423
599 1 35.2 6.4 3.2 -11.8855
600 3 36.8 8 4.8 -11.1992
601 2 38.4 6.4 3.2 -9.77958
602 2 40 8 4.8 -9.92221
603 2 41.6 6.4 3.2 -9.85373
604 1 43.2 8 4.8 -11.7819
605 2 44.8 6.4 3.2 -9.77601
606 1 46.4 8 4.8 -11.8119
607 3 48 6.4 3.2 -11.2636
608 1 49.6 8 4.8 -11.8257
609 3 0 9.6 3.2 -11.2743
610 1 1.6 11.2 4.8 -11.7743
611 3 3.2 9.6 3.2 -11.1915
612 1 4.8 11.2 4.8 -11.7019
613 3 6.4 9.6 3.2 -11.3081
614 1 8 11.2 4.8 -11.8118
615 3 9.6 9.6 3.2 -11.3086
616 1 11.2 11.2 4.8 -11.841
617 3 12.8 9.6 3.2 -11.3339
618 1 14.4 11.2 4.8 -11.8779
619 3 16 9.6 3.2 -11.3911
620 1 17.6 11.2 4.8 -11.8411
621 3 19.2 9.6 3.2 -11.3394
622 1 20.8 11.2 4.8 -11.8674
623 3 22.4 9.6 3.2 -11.2629
624 2 24 11.2 4.8 -9.83454
625 1 25.6 9.6 3.2 -11.7408
626 3 27.2 11.2 4.8 -11.2404
627 1 28.8 9.6 3.2 -11.8412
628 3 30.4 11.2 4.8 -11.2423
629 1 32 9.6 3.2 -11.8411
630 3 33.6 11.2 4.8 -11.2051
631 1 35.2 9.6 3.2 -11.7307
632 2 36.8 11.2 4.8 -9.62157
633 1 38.4 9.6 3.2 -11.6649
634 3 40 11.2 4.8 -11.1841
635 3 41.6 9.6 3.2 -11.3265
636 1 43.2 11.2 4.8 -11.878
637 3 44.8 9.6 3.2 -11.2039
638 1 46.4 11.2 4.8 -11.8414
639 3 48 9.6 3.2 -11.2423
640 1 49.6 11.2 4.8 -11.8533
641 3 0 12.8 3.2 -11.2392
642 2 1.6 14.4 4.8 -9.79099
643 2 3.2 12.8 3.2 -9.77577
644 1 4.8 14.4 4.8 -11.8456
645 3 6.4 12.8 3.2 -11.2039
646 1 8 14.4 4.8 -11.8418
647 3 9.6 12.8 3.2 -11.2417
648 1 11.2 14.4 4.8 -11.8212
649 3 12.8 12.8 3.2 -11.3387
650 3 14.4 14.4 4.8 -11.3122
651 3 16 12.8 3.2 -11.3061
652 1 17.6 14.4 4.8 -11.796
653 3 19.2 12.8 3.2 -11.2738
654 1 20.8 14.4 4.8 -11.8529
655 3 22.4 12.8 3.2 -11.381
656 3 24 14.4 4.8 -11.3701
657 1 25.6 12.8 3.2 -11.7611
658 3 27.2 14.4 4.8 -11.2325
659 1 28.8 12.8 3.2 -11.8413
660 3 30.4 14.4 4.8 -11.272
661 1 32 12.8 3.2 -11.8417
662 3 33.6 14.4 4.8 -11.2382
663 1 35.2 12.8 3.2 -11.7094
664 3 36.8 14.4 4.8 -11.16
665 1 38.4 12.8 3.2 -11.6408
666 2 40 14.4 4.8 -9.90278
667 3 41.6 12.8 3.2 -11.4068
668 1 43.2 14.4 4.8 -11.8656
669 3 44.8 12.8 3.2 -11.274
670 1 46.4 14.4 4.8 -11.8033
671 3 48 12.8 3.2 -11.2042
672 1 49.6 14.4 4.8 -11.7289
673 2 0 16 3.2 -9.87621
674 3 1.6 17.6 4.8 -11.3767
675 3 3.2 16 3.2 -11.4206
676 3 4.8 17.6 4.8 -11.4209
677 3 6.4 16 3.2 -11.3593
678 2 8 17.6 4.8 -9.8535
679 3 9.6 16 3.2 -11.2387
680 1 11.2 17.6 4.8 -11.7834
681 3 12.8 16 3.2 -11.2726
682 1 14.4 17.6 4.8 -11.8211
683 2 16 16 3.2 -9.84987
684 1 17.6 17.6 4.8 -11.7585
685 2 19.2 16 3.2 -9.78577
686 1 20.8 17.6 4.8 -11.7478
687 2 22.4 16 3.2 -9.89887
688 2 24 17.6 4.8 -9.84912
689 1 25.6 16 3.2 -11.7849
690 2 27.2 17.6 4.8 -9.66592
691 1 28.8 16 3.2 -11.7781
692 3 30.4 17.6 4.8 -11.3468
693 2 32 16 3.2 -9.84376
694 3 33.6 17.6 4.8 -11.3256
695 1 35.2 16 3.2 -11.7789
696 3 36.8 17.6 4.8 -11.3193
697 1 38.4 16 3.2 -11.7919
698 1 40 17.6 4.8 -11.8262
699 3 41.6 16 3.2 -11.2776
700 1 43.2 17.6 4.8 -11.8442
701 2 44.8 16 3.2 -9.89769
702 3 46.4 17.6 4.8 -11.2834
703 2 48 16 3.2 -9.85347
704 2 49.6 17.6 4.8 -9.84318
705 1 0 19.2 3.2 -11.817
706 3 1.6 20.8 4.8 -11.242
707 1 3.2 19.2 3.2 -11.8265
708 3 4.8 20.8 4.8 -11.274
709 1 6.4 19.2 3.2 -11.783
710 2 8 20.8 4.8 -9.92193
711 2 9.6 19.2 3.2 -9.87243
712 1 11.2 20.8 4.8 -11.8788
713 3 12.8 19.2 3.2 -11.2745
714 1 14.4 20.8 4.8 -11.8269
715 3 16 19.2 3.2 -11.1984
716 1 17.6 20.8 4.8 -11.7591
717 2 19.2 19.2 3.2 -9.71852
718 1 20.8 20.8 4.8 -11.695
719 2 22.4 19.2 3.2 -9.82457
720 2 24 20.8 4.8 -9.81682
721 1 25.6 19.2 3.2 -11.7502
722 3 27.2 20.8 4.8 -11.216
723 1 28.8 19.2 3.2 -11.7807
724 2 30.4 20.8 4.8 -9.93403
725 3 32 19.2 3.2 -11.3915
726 1 33.6 20.8 4.8 -11.8847
727 3 35.2 19.2 3.2 -11.4579
728 1 36.8 20.8 4.8 -11.9393
729 3 38.4 19.2 3.2 -11.4132
730 1 40 20.8 4.8 -11.7797
731 2 41.6 19.2 3.2 -9.90824
732 3 43.2 20.8 4.8 -11.3439
733 3 44.8 19.2 3.2 -11.3808
734 3 46.4 20.8 4.8 -11.392
735 1 48 19.2 3.2 -11.8551
736 3 49.6 20.8 4.8 -11.2033
737 1 0 22.4 3.2 -11.8417
738 3 1.6 24 4.8 -11.2414
739 1 3.2 22.4 3.2 -11.8679
740 3 4.8 24 4.8 -11.3654
741 2 6.4 22.4 3.2 -9.84053
742 3 8 24 4.8 -11.3988
743 2 9.6 22.4 3.2 -9.95916
744 1 11.2 24 4.8 -11.9283
745 3 12.8 22.4 3.2 -11.3307
746 1 14.4 24 4.8 -11.841
747 3 16 22.4 3.2 -11.2045
748 1 17.6 24 4.8 -11.8137
749 3 19.2 22.4 3.2 -11.1243
750 1 20.8 24 4.8 -11.7109
751 2 22.4 22.4 3.2 -9.81621
752 3 24 24 4.8 -11.1819
753 1 25.6 22.4 3.2 -11.8538
754 2 27.2 24 4.8 -9.93627
755 3 28.8 22.4 3.2 -11.3994
756 1 30.4 24 4.8 -11.8765
757 2 32 22.4 3.2 -9.91741
758 2 33.6 24 4.8 -9.80974
759 3 35.2 22.4 3.2 -11.367
760 2 36.8 24 4.8 -9.85453
761 3 38.4 22.4 3.2 -11.4158
762 3 40 24 4.8 -11.2602
763 1 41.6 22.4 3.2 -11.8295
764 3 43.2 24 4.8 -11.2426
765 1 44.8 22.4 3.2 -11.878
766 3 46.4 24 4.8 -11.2414
767 1 48 22.4 3.2 -11.8414
768 3 49.6 24 4.8 -11.2414
769 1 0 25.6 3.2 -11.8679
771 1 3.2 25.6 3.2 -11.8673
773 2 6.4 25.6 3.2 -9.90217
775 3 9.6 25.6 3.2 -11.4812
777 3 12.8 25.6 3.2 -11.4145
779 3 16 25.6 3.2 -11.2417
781 3 19.2 25.6 3.2 -11.2432
783 3 22.4 25.6 3.2 -11.3594
785 1 25.6 25.6 3.2 -11.9136
787 3 28.8 25.6 3.2 -11.4594
789 3 32 25.6 3.2 -11.2557
791 1 35.2 25.6 3.2 -11.8135
793 1 38.4 25.6 3.2 -11.8534
795 1 41.6 25.6 3.2 -11.8411
797 1 44.8 25.6 3.2 -11.8413
799 1 48 25.6 3.2 -11.8677
770 3 1.6 27.2 4.8 -11.3075
801 2 0 28.8 3.2 -9.7915
772 3 4.8 27.2 4.8 -11.3332
803 1 3.2 28.8 3.2 -11.8959
774 1 8 27.2 4.8 -11.8105
805 2 6.4 28.8 3.2 -9.86854
776 1 11.2 27.2 4.8 -11.9056
807 3 9.6 28.8 3.2 -11.302
778 1 14.4 27.2 4.8 -11.841
809 3 12.8 28.8 3.2 -11.3384
780 1 17.6 27.2 4.8 -11.8407
811 3 16 28.8 3.2 -11.3074
782 1 20.8 27.2 4.8 -11.728
813 3 19.2 28.8 3.2 -11.3319
784 3 24 27.2 4.8 -11.29
815 3 22.4 28.8 3.2 -11.3643
817 1 25.6 28.8 3.2 -11.9162
786 3 27.2 27.2 4.8 -11.3982
819 3 28.8 28.8 3.2 -11.386
788 1 30.4 27.2 4.8 -11.8118
821 2 32 28.8 3.2 -9.9005
790 3 33.6 27.2 4.8 -11.3052
823 1 35.2 28.8 3.2 -11.8696
792 3 36.8 27.2 4.8 -11.2723
825 1 38.4 28.8 3.2 -11.8672
794 3 40 27.2 4.8 -11.2423
827 1 41.6 28.8 3.2 -11.8815
796 3 43.2 27.2 4.8 -11.2423
829 1 44.8 28.8 3.2 -11.8113
798 3 46.4 27.2 4.8 -11.274
831 2 48 28.8 3.2 -9.77811
800 3 49.6 27.2 4.8 -11.3652
802 3 1.6 30.4 4.8 -11.3397
833 1 0 32 3.2 -11.7577
804 3 4.8 30.4 4.8 -11.3767
835 2 3.2 32 3.2 -9.80617
806 1 8 30.4 4.8 -11.8157
837 2 6.4 32 3.2 -9.89902
808 1 11.2 30.4 4.8 -11.8667
839 3 9.6 32 3.2 -11.3292
810 1 14.4 30.4 4.8 -11.8529
841 3 12.8 32 3.2 -11.3557
812 1 17.6 30.4 4.8 -11.7956
843 2 16 32 3.2 -9.87774
814 2 20.8 30.4 4.8 -9.80936
845 1 19.2 32 3.2 -11.7761
816 3 24 30.4 4.8 -11.2986
847 1 22.4 32 3.2 -11.7655
849 1 25.6 32 3.2 -11.8185
818 3 27.2 30.4 4.8 -11.3643
851 2 28.8 32 3.2 -9.87827
820 1 30.4 30.4 4.8 -11.814
853 3 32 32 3.2 -11.3297
822 3 33.6 30.4 4.8 -11.3654
855 1 35.2 32 3.2 -11.854
824 3 36.8 30.4 4.8 -11.3368
857 2 38.4 32 3.2 -9.82025
826 3 40 30.4 4.8 -11.388
859 2 41.6 32 3.2 -9.92133
828 3 43.2 30.4 4.8 -11.32
861 3 44.8 32 3.2 -11.2884
830 2 46.4 30.4 4.8 -9.82369
863 1 48 32 3.2 -11.7351
832 3 49.6 30.4 4.8 -11.231
834 2 1.6 33.6 4.8 -9.87614
865 2 0 35.2 3.2 -9.81225
836 2 4.8 33.6 4.8 -9.87996
867 2 3.2 35.2 3.2 -9.82611
838 1 8 33.6 4.8 -11.8705
869 2 6.4 35.2 3.2 -9.87733
840 1 11.2 33.6 4.8 -11.8472
871 2 9.6 35.2 3.2 -9.88374
842 3 14.4 33.6 4.8 -11.3965
873 1 12.8 35.2 3.2 -11.8484
844 3 17.6 33.6 4.8 -11.3517
875 1 16 35.2 3.2 -11.8925
846 3 20.8 33.6 4.8 -11.2376
877 1 19.2 35.2 3.2 -11.8533
848 2 24 33.6 4.8 -9.79225
879 1 22.4 35.2 3.2 -11.8112
881 2 25.6 35.2 3.2 -9.87478
850 1 27.2 33.6 4.8 -11.7622
883 2 28.8 35.2 3.2 -9.93256
852 1 30.4 33.6 4.8 -11.7639
885 2 32 35.2 3.2 -9.95365
854 3 33.6 33.6 4.8 -11.3709
887 2 35.2 35.2 3.2 -9.88907
856 2 36.8 33.6 4.8 -9.81195
889 2 38.4 35.2 3.2 -9.81321
858 3 40 33.6 4.8 -11.3186
891 1 41.6 35.2 3.2 -11.7243
860 2 43.2 33.6 4.8 -9.87995
893 1 44.8 35.2 3.2 -11.8393
862 3 46.4 33.6 4.8 -11.274
895 1 48 35.2 3.2 -11.7574
864 3 49.6 33.6 4.8 -11.229
866 1 1.6 36.8 4.8 -11.8279
897 2 0 38.4 3.2 -9.83338
868 1 4.8 36.8 4.8 -11.7955
899 2 3.2 38.4 3.2 -9.83495
870 3 8 36.8 4.8 -11.4598
901 3 6.4 38.4 3.2 -11.3117
872 3 11.2 36.8 4.8 -11.3859
903 1 9.6 38.4 3.2 -11.9029
874 3 14.4 36.8 4.8 -11.3922
905 1 12.8 38.4 3.2 -11.841
876 3 17.6 36.8 4.8 -11.3592
907 1 16 38.4 3.2 -11.7956
878 3 20.8 36.8 4.8 -11.3638
909 3 19.2 38.4 3.2 -11.3559
880 3 24 36.8 4.8 -11.3799
911 2 22.4 38.4 3.2 -9.90219
913 1 25.6 38.4 3.2 -11.7488
882 3 27.2 36.8 4.8 -11.3607
915 2 28.8 38.4 3.2 -9.83746
884 3 30.4 36.8 4.8 -11.3733
917 3 32 38.4 3.2 -11.3549
886 2 33.6 36.8 4.8 -9.94987
919 3 35.2 38.4 3.2 -11.3433
888 1 36.8 36.8 4.8 -11.6312
921 2 38.4 38.4 3.2 -9.80973
890 3 40 36.8 4.8 -11.2604
923 2 41.6 38.4 3.2 -9.83739
892 3 43.2 36.8 4.8 -11.2358
925 1 44.8 38.4 3.2 -11.8385
894 3 46.4 36.8 4.8 -11.2019
927 1 48 38.4 3.2 -11.7169
896 1 49.6 36.8 4.8 -11.7155
898 1 1.6 40 4.8 -11.8527
929 3 0 41.6 3.2 -11.2668
900 1 4.8 40 4.8 -11.8319
931 3 3.2 41.6 3.2 -11.3436
902 3 8 40 4.8 -11.3757
933 2 6.4 41.6 3.2 -9.96131
904 3 11.2 40 4.8 -11.3081
935 1 9.6 41.6 3.2 -11.8812
906 3 14.4 40 4.8 -11.2596
937 1 12.8 41.6 3.2 -11.8676
908 1 17.6 40 4.8 -11.6696
939 1 16 41.6 3.2 -11.8048
910 1 20.8 40 4.8 -11.861
941 3 19.2 41.6 3.2 -11.3618
912 1 24 40 4.8 -11.8151
943 3 22.4 41.6 3.2 -11.4208
945 2 25.6 41.6 3.2 -9.85702
914 1 27.2 40 4.8 -11.7439
947 2 28.8 41.6 3.2 -9.75769
916 1 30.4 40 4.8 -11.8185
949 3 32 41.6 3.2 -11.2716
918 3 33.6 40 4.8 -11.2352
951 2 35.2 41.6 3.2 -9.75572
920 1 36.8 40 4.8 -11.7099
953 3 38.4 41.6 3.2 -11.15
922 2 40 40 4.8 -9.84461
955 1 41.6 41.6 3.2 -11.7115
924 3 43.2 40 4.8 -11.2372
957 1 44.8 41.6 3.2 -11.7973
926 2 46.4 40 4.8 -9.81135
959 1 48 41.6 3.2 -11.7463
928 1 49.6 40 4.8 -11.7489
930 1 1.6 43.2 4.8 -11.7926
961 1 0 44.8 3.2 -11.7583
932 1 4.8 43.2 4.8 -11.857
963 2 3.2 44.8 3.2 -9.88991
934 2 8 43.2 4.8 -9.89414
965 3 6.4 44.8 3.2 -11.4645
936 3 11.2 43.2 4.8 -11.3891
967 3 9.6 44.8 3.2 -11.3346
938 3 14.4 43.2 4.8 -11.3315
969 1 12.8 44.8 3.2 -11.8535
940 2 17.6 43.2 4.8 -9.86665
971 1 16 44.8 3.2 -11.8114
942 2 20.8 43.2 4.8 -9.91582
973 1 19.2 44.8 3.2 -11.8594
944 2 24 43.2 4.8 -9.88511
975 1 22.4 44.8 3.2 -11.8263
977 2 25.6 44.8 3.2 -9.88758
946 1 27.2 43.2 4.8 -11.8447
979 3 28.8 44.8 3.2 -11.3117
948 1 30.4 43.2 4.8 -11.8111
981 3 32 44.8 3.2 -11.2435
950 1 33.6 43.2 4.8 -11.7318
983 3 35.2 44.8 3.2 -11.1645
952 1 36.8 43.2 4.8 -11.7486
985 3 38.4 44.8 3.2 -11.3005
954 2 40 43.2 4.8 -9.8545
987 1 41.6 44.8 3.2 -11.7112
956 3 43.2 43.2 4.8 -11.166
989 1 44.8 44.8 3.2 -11.7865
958 3 46.4 43.2 4.8 -11.227
991 1 48 44.8 3.2 -11.75
960 2 49.6 43.2 4.8 -9.77936
962 2 1.6 46.4 4.8 -9.82266
993 2 0 48 3.2 -9.92199
964 1 4.8 46.4 4.8 -11.8566
995 2 3.2 48 3.2 -9.9293
966 1 8 46.4 4.8 -11.8375
997 3 6.4 48 3.2 -11.3076
968 2 11.2 46.4 4.8 -9.87169
999 1 9.6 48 3.2 -11.7953
970 3 14.4 46.4 4.8 -11.2751
1001 1 12.8 48 3.2 -11.7186
972 3 17.6 46.4 4.8 -11.2364
1003 1 16 48 3.2 -11.7811
974 3 20.8 46.4 4.8 -11.2366
1005 1 19.2 48 3.2 -11.8178
976 2 24 46.4 4.8 -9.77825
1007 1 22.4 48 3.2 -11.7841
1009 1 25.6 48 3.2 -11.784
978 3 27.2 46.4 4.8 -11.2965
1011 1 28.8 48 3.2 -11.7104
980 1 30.4 46.4 4.8 -11.8042
1013 3 32 48 3.2 -11.2671
982 1 33.6 46.4 4.8 -11.8117
1015 3 35.2 48 3.2 -11.2751
984 1 36.8 46.4 4.8 -11.8817
1017 3 38.4 48 3.2 -11.3437
986 3 40 46.4 4.8 -11.387
1019 2 41.6 48 3.2 -9.81791
988 3 43.2 46.4 4.8 -11.2402
1021 1 44.8 48 3.2 -11.7671
990 3 46.4 46.4 4.8 -11.2664
1023 1 48 48 3.2 -11.8806
992 2 49.6 46.4 4.8 -9.90263
994 1 1.6 49.6 4.8 -11.8546
996 2 4.8 49.6 4.8 -9.91241
998 2 8 49.6 4.8 -9.87672
1000 2 11.2 49.6 4.8 -9.82304
1002 3 14.4 49.6 4.8 -11.2752
1004 2 17.6 49.6 4.8 -9.8991
1006 3 20.8 49.6 4.8 -11.2808
1008 2 24 49.6 4.8 -9.77528
1010 2 27.2 49.6 4.8 -9.8811
1012 2 30.4 49.6 4.8 -9.86329
1014 1 33.6 49.6 4.8 -11.8364
1016 2 36.8 49.6 4.8 -9.86895
1018 3 40 49.6 4.8 -11.3648
1020 2 43.2 49.6 4.8 -9.73069
1022 2 46.4 49.6 4.8 -9.87624
1024 3 49.6 49.6 4.8 -11.3912
1025 3 0 0 6.4 -11.2248
1026 1 1.6 1.6 8 -11.5502
1027 2 3.2 0 6.4 -9.82541
1028 2 4.8 1.6 8 -9.75983
1029 1 6.4 0 6.4 -11.7825
1030 2 8 1.6 8 -9.64541
1031 1 9.6 0 6.4 -11.7906
1032 3 11.2 1.6 8 -11.1968
1033 1 12.8 0 6.4 -11.8496
1034 3 14.4 1.6 8 -11.3726
1035 3 16 0 6.4 -11.4223
1036 1 17.6 1.6 8 -11.8095
1037 2 19.2 0 6.4 -9.90166
1038 1 20.8 1.6 8 -11.8162
1039 3 22.4 0 6.4 -11.2181
1040 1 24 1.6 8 -11.7557
1041 2 25.6 0 6.4 -9.90069
1042 2 27.2 1.6 8 -9.87611
1043 3 28.8 0 6.4 -11.3198
1044 3 30.4 1.6 8 -11.2643
1045 2 32 0 6.4 -9.87451
1046 3 33.6 1.6 8 -11.2691
1047 2 35.2 0 6.4 -9.83858
1048 3 36.8 1.6 8 -11.2389
1049 1 38.4 0 6.4 -11.8199
1050 3 40 1.6 8 -11.3276
1051 1 41.6 0 6.4 -11.7257
1052 2 43.2 1.6 8 -9.86433
1053 1 44.8 0 6.4 -11.6798
1054 3 46.4 1.6 8 -11.3225
1055 3 48 0 6.4 -11.3743
1056 1 49.6 1.6 8 -11.7214
1057 2 0 3.2 6.4 -9.75348
1058 2 1.6 4.8 8 -9.69634
1059 2 3.2 3.2 6.4 -9.82627
1060 3 4.8 4.8 8 -11.116
1061 1 6.4 3.2 6.4 -11.7776
1062 2 8 4.8 8 -9.72114
1063 1 9.6 3.2 6.4 -11.7869
1064 2 11.2 4.8 8 -9.86254
1065 2 12.8 3.2 6.4 -9.84987
1066 2 14.4 4.8 8 -9.93411
1067 3 16 3.2 6.4 -11.2765
1068 1 17.6 4.8 8 -11.8026
1069 3 19.2 3.2 6.4 -11.0816
1070 1 20.8 4.8 8 -11.8535
1071 3 22.4 3.2 6.4 -11.2447
1072 1 24 4.8 8 -11.7715
1073 3 25.6 3.2 6.4 -11.2242
1074 1 27.2 4.8 8 -11.7008
1075 1 28.8 3.2 6.4 -11.8073
1076 3 30.4 4.8 8 -11.2015
1077 1 32 3.2 6.4 -11.8668
1078 3 33.6 4.8 8 -11.2417
1079 1 35.2 3.2 6.4 -11.8708
1080 3 36.8 4.8 8 -11.2423
1081 1 38.4 3.2 6.4 -11.7814
1082 3 40 4.8 8 -11.3726
1083 2 41.6 3.2 6.4 -9.84719
1084 1 43.2 4.8 8 -11.8537
1085 3 44.8 3.2 6.4 -11.2273
1086 1 46.4 4.8 8 -11.8818
1087 2 48 3.2 6.4 -9.89782
1088 2 49.6 4.8 8 -9.78658
1089 1 0 6.4 6.4 -11.7859
1090 3 1.6 8 8 -11.2887
1091 1 3.2 6.4 6.4 -11.7831
1092 2 4.8 8 8 -9.7291
1093 1 6.4 6.4 6.4 -11.7831
1094 2 8 8 8 -9.76454
1095 2 9.6 6.4 6.4 -9.83338
1096 2 11.2 8 8 -9.86838
1097 2 12.8 6.4 6.4 -9.94722
1098 2 14.4 8 8 -9.89358
1099 3 16 6.4 6.4 -11.3613
1100 1 17.6 8 8 -11.8584
1101 3 19.2 6.4 6.4 -11.2432
1102 1 20.8 8 8 -11.8128
1103 3 22.4 6.4 6.4 -11.2001