 # Bcc Mo oriented X=[100] Y=[010] Z=[001].
  
        8192  atoms
           4  atom types
 
      0.000000000000      51.200000000000  xlo xhi
      0.000000000000      51.200000000000  ylo yhi
      0.000000000000      51.200000000000  zlo zhi
 
 
 
Atoms # atomic

1 1 0.0 0.0 0.0
2 2 1.6 1.6 1.6
3 2 3.2 0.0 0.0
4 2 4.8 1.6 1.6
5 2 6.4 0.0 0.0
6 1 8.0 1.6 1.6
7 2 9.6 0.0 0.0
8 1 11.2 1.6 1.6
9 2 12.8 0.0 0.0
10 2 14.4 1.6 1.6
11 2 16.0 0.0 0.0
12 1 17.6 1.6 1.6
13 3 19.2 0.0 0.0
14 1 20.8 1.6 1.6
15 2 22.4 0.0 0.0
16 2 24.0 1.6 1.6
17 2 25.6 0.0 0.0
18 1 27.2 1.6 1.6
19 2 28.8 0.0 0.0
20 2 30.4 1.6 1.6
21 2 32.0 0.0 0.0
22 2 33.6 1.6 1.6
23 2 35.2 0.0 0.0
24 1 36.8 1.6 1.6
25 3 38.4 0.0 0.0
26 2 40.0 1.6 1.6
27 1 41.6 0.0 0.0
28 3 43.2 1.6 1.6
29 2 44.8 0.0 0.0
30 3 46.4 1.6 1.6
31 2 48.0 0.0 0.0
32 3 49.6 1.6 1.6
33 2 0.0 3.2 0.0
34 2 1.6 4.8 1.6
35 3 3.2 3.2 0.0
36 2 4.8 4.8 1.6
37 2 6.4 3.2 0.0
38 2 8.0 4.8 1.6
39 3 9.6 3.2 0.0
40 1 11.2 4.8 1.6
41 3 12.8 3.2 0.0
42 1 14.4 4.8 1.6
43 3 16.0 3.2 0.0
44 1 17.6 4.8 1.6
45 3 19.2 3.2 0.0
46 3 20.8 4.8 1.6
47 3 22.4 3.2 0.0
48 2 24.0 4.8 1.6
49 2 25.6 3.2 0.0
50 1 27.2 4.8 1.6
51 3 28.8 3.2 0.0
52 3 30.4 4.8 1.6
53 3 32.0 3.2 0.0
54 2 33.6 4.8 1.6
55 3 35.2 3.2 0.0
56 2 36.8 4.8 1.6
57 3 38.4 3.2 0.0
58 3 40.0 4.8 1.6
59 3 41.6 3.2 0.0
60 2 43.2 4.8 1.6
61 2 44.8 3.2 0.0
62 3 46.4 4.8 1.6
63 1 48.0 3.2 0.0
64 3 49.6 4.8 1.6
65 2 0.0 6.4 0.0
66 2 1.6 8.0 1.6
67 2 3.2 6.4 0.0
68 1 4.8 8.0 1.6
69 2 6.4 6.4 0.0
70 2 8.0 8.0 1.6
71 2 9.6 6.4 0.0
72 1 11.2 8.0 1.6
73 3 12.8 6.4 0.0
74 2 14.4 8.0 1.6
75 3 16.0 6.4 0.0
76 2 17.6 8.0 1.6
77 2 19.2 6.4 0.0
78 1 20.8 8.0 1.6
79 3 22.4 6.4 0.0
80 1 24.0 8.0 1.6
81 2 25.6 6.4 0.0
82 2 27.2 8.0 1.6
83 3 28.8 6.4 0.0
84 2 30.4 8.0 1.6
85 3 32.0 6.4 0.0
86 3 33.6 8.0 1.6
87 3 35.2 6.4 0.0
88 2 36.8 8.0 1.6
89 3 38.4 6.4 0.0
90 3 40.0 8.0 1.6
91 3 41.6 6.4 0.0
92 1 43.2 8.0 1.6
93 2 44.8 6.4 0.0
94 1 46.4 8.0 1.6
95 3 48.0 6.4 0.0
96 1 49.6 8.0 1.6
97 3 0.0 9.6 0.0
98 2 1.6 11.2 1.6
99 3 3.2 9.6 0.0
100 2 4.8 11.2 1.6
101 2 6.4 9.6 0.0
102 2 8.0 11.2 1.6
103 2 9.6 9.6 0.0
104 2 11.2 11.2 1.6
105 3 12.8 9.6 0.0
106 1 14.4 11.2 1.6
107 2 16.0 9.6 0.0
108 3 17.6 11.2 1.6
109 2 19.2 9.6 0.0
110 2 20.8 11.2 1.6
111 3 22.4 9.6 0.0
112 1 24.0 11.2 1.6
113 3 25.6 9.6 0.0
114 2 27.2 11.2 1.6
115 3 28.8 9.6 0.0
116 1 30.4 11.2 1.6
117 3 32.0 9.6 0.0
118 3 33.6 11.2 1.6
119 3 35.2 9.6 0.0
120 3 36.8 11.2 1.6
121 3 38.4 9.6 0.0
122 3 40.0 11.2 1.6
123 3 41.6 9.6 0.0
124 2 43.2 11.2 1.6
125 2 44.8 9.6 0.0
126 3 46.4 11.2 1.6
127 3 48.0 9.6 0.0
128 1 49.6 11.2 1.6
129 2 0.0 12.8 0.0
130 2 1.6 14.4 1.6
131 2 3.2 12.8 0.0
132 3 4.8 14.4 1.6
133 2 6.4 12.8 0.0
134 2 8.0 14.4 1.6
135 3 9.6 12.8 0.0
136 3 11.2 14.4 1.6
137 2 12.8 12.8 0.0
138 2 14.4 14.4 1.6
139 3 16.0 12.8 0.0
140 3 17.6 14.4 1.6
141 1 19.2 12.8 0.0
142 3 20.8 14.4 1.6
143 3 22.4 12.8 0.0
144 2 24.0 14.4 1.6
145 3 25.6 12.8 0.0
146 1 27.2 14.4 1.6
147 3 28.8 12.8 0.0
148 1 30.4 14.4 1.6
149 2 32.0 12.8 0.0
150 1 33.6 14.4 1.6
151 2 35.2 12.8 0.0
152 2 36.8 14.4 1.6
153 1 38.4 12.8 0.0
154 2 40.0 14.4 1.6
155 1 41.6 12.8 0.0
156 3 43.2 14.4 1.6
157 2 44.8 12.8 0.0
158 2 46.4 14.4 1.6
159 2 48.0 12.8 0.0
160 2 49.6 14.4 1.6
161 2 0.0 16.0 0.0
162 2 1.6 17.6 1.6
163 1 3.2 16.0 0.0
164 3 4.8 17.6 1.6
165 3 6.4 16.0 0.0
166 3 8.0 17.6 1.6
167 3 9.6 16.0 0.0
168 2 11.2 17.6 1.6
169 3 12.8 16.0 0.0
170 2 14.4 17.6 1.6
171 2 16.0 16.0 0.0
172 2 17.6 17.6 1.6
173 1 19.2 16.0 0.0
174 2 20.8 17.6 1.6
175 1 22.4 16.0 0.0
176 2 24.0 17.6 1.6
177 2 25.6 16.0 0.0
178 3 27.2 17.6 1.6
179 3 28.8 16.0 0.0
180 3 30.4 17.6 1.6
181 3 32.0 16.0 0.0
182 2 33.6 17.6 1.6
183 2 35.2 16.0 0.0
184 2 36.8 17.6 1.6
185 1 38.4 16.0 0.0
186 2 40.0 17.6 1.6
187 1 41.6 16.0 0.0
188 3 43.2 17.6 1.6
189 2 44.8 16.0 0.0
190 3 46.4 17.6 1.6
191 1 48.0 16.0 0.0
192 3 49.6 17.6 1.6
193 2 0.0 19.2 0.0
194 2 1.6 20.8 1.6
195 2 3.2 19.2 0.0
196 2 4.8 20.8 1.6
197 2 6.4 19.2 0.0
198 1 8.0 20.8 1.6
199 2 9.6 19.2 0.0
200 1 11.2 20.8 1.6
201 2 12.8 19.2 0.0
202 1 14.4 20.8 1.6
203 2 16.0 19.2 0.0
204 1 17.6 20.8 1.6
205 2 19.2 19.2 0.0
206 1 20.8 20.8 1.6
207 3 22.4 19.2 0.0
208 1 24.0 20.8 1.6
209 3 25.6 19.2 0.0
210 2 27.2 20.8 1.6
211 1 28.8 19.2 0.0
212 2 30.4 20.8 1.6
213 1 32.0 19.2 0.0
214 2 33.6 20.8 1.6
215 2 35.2 19.2 0.0
216 2 36.8 20.8 1.6
217 2 38.4 19.2 0.0
218 2 40.0 20.8 1.6
219 1 41.6 19.2 0.0
220 2 43.2 20.8 1.6
221 1 44.8 19.2 0.0
222 3 46.4 20.8 1.6
223 1 48.0 19.2 0.0
224 3 49.6 20.8 1.6
225 2 0.0 22.4 0.0
226 3 1.6 24.0 1.6
227 1 3.2 22.4 0.0
228 3 4.8 24.0 1.6
229 1 6.4 22.4 0.0
230 3 8.0 24.0 1.6
231 2 9.6 22.4 0.0
232 2 11.2 24.0 1.6
233 2 12.8 22.4 0.0
234 2 14.4 24.0 1.6
235 3 16.0 22.4 0.0
236 3 17.6 24.0 1.6
237 3 19.2 22.4 0.0
238 3 20.8 24.0 1.6
239 3 22.4 22.4 0.0
240 1 24.0 24.0 1.6
241 3 25.6 22.4 0.0
242 1 27.2 24.0 1.6
243 3 28.8 22.4 0.0
244 1 30.4 24.0 1.6
245 3 32.0 22.4 0.0
246 2 33.6 24.0 1.6
247 2 35.2 22.4 0.0
248 3 36.8 24.0 1.6
249 2 38.4 22.4 0.0
250 3 40.0 24.0 1.6
251 1 41.6 22.4 0.0
252 3 43.2 24.0 1.6
253 1 44.8 22.4 0.0
254 2 46.4 24.0 1.6
255 2 48.0 22.4 0.0
256 2 49.6 24.0 1.6
257 1 0.0 25.6 0.0
258 3 1.6 27.2 1.6
259 1 3.2 25.6 0.0
260 3 4.8 27.2 1.6
261 1 6.4 25.6 0.0
262 3 8.0 27.2 1.6
263 3 9.6 25.6 0.0
264 3 11.2 27.2 1.6
265 3 12.8 25.6 0.0
266 3 14.4 27.2 1.6
267 3 16.0 25.6 0.0
268 1 17.6 27.2 1.6
269 3 19.2 25.6 0.0
270 2 20.8 27.2 1.6
271 2 22.4 25.6 0.0
272 3 24.0 27.2 1.6
273 3 25.6 25.6 0.0
274 2 27.2 27.2 1.6
275 2 28.8 25.6 0.0
276 2 30.4 27.2 1.6
277 3 32.0 25.6 0.0
278 2 33.6 27.2 1.6
279 2 35.2 25.6 0.0
280 2 36.8 27.2 1.6
281 1 38.4 25.6 0.0
282 3 40.0 27.2 1.6
283 3 41.6 25.6 0.0
284 3 43.2 27.2 1.6
285 2 44.8 25.6 0.0
286 3 46.4 27.2 1.6
287 2 48.0 25.6 0.0
288 3 49.6 27.2 1.6
289 1 0.0 28.8 0.0
290 3 1.6 30.4 1.6
291 2 3.2 28.8 0.0
292 2 4.8 30.4 1.6
293 2 6.4 28.8 0.0
294 1 8.0 30.4 1.6
295 3 9.6 28.8 0.0
296 1 11.2 30.4 1.6
297 3 12.8 28.8 0.0
298 2 14.4 30.4 1.6
299 2 16.0 28.8 0.0
300 2 17.6 30.4 1.6
301 2 19.2 28.8 0.0
302 2 20.8 30.4 1.6
303 1 22.4 28.8 0.0
304 3 24.0 30.4 1.6
305 2 25.6 28.8 0.0
306 1 27.2 30.4 1.6
307 2 28.8 28.8 0.0
308 2 30.4 30.4 1.6
309 2 32.0 28.8 0.0
310 2 33.6 30.4 1.6
311 3 35.2 28.8 0.0
312 1 36.8 30.4 1.6
313 2 38.4 28.8 0.0
314 1 40.0 30.4 1.6
315 3 41.6 28.8 0.0
316 3 43.2 30.4 1.6
317 2 44.8 28.8 0.0
318 3 46.4 30.4 1.6
319 1 48.0 28.8 0.0
320 3 49.6 30.4 1.6
321 1 0.0 32.0 0.0
322 3 1.6 33.6 1.6
323 2 3.2 32.0 0.0
324 3 4.8 33.6 1.6
325 3 6.4 32.0 0.0
326 1 8.0 33.6 1.6
327 3 9.6 32.0 0.0
328 2 11.2 33.6 1.6
329 2 12.8 32.0 0.0
330 2 14.4 33.6 1.6
331 2 16.0 32.0 0.0
332 2 17.6 33.6 1.6
333 2 19.2 32.0 0.0
334 2 20.8 33.6 1.6
335 1 22.4 32.0 0.0
336 3 24.0 33.6 1.6
337 3 25.6 32.0 0.0
338 3 27.2 33.6 1.6
339 2 28.8 32.0 0.0
340 3 30.4 33.6 1.6
341 2 32.0 32.0 0.0
342 1 33.6 33.6 1.6
343 3 35.2 32.0 0.0
344 3 36.8 33.6 1.6
345 3 38.4 32.0 0.0
346 2 40.0 33.6 1.6
347 3 41.6 32.0 0.0
348 3 43.2 33.6 1.6
349 2 44.8 32.0 0.0
350 3 46.4 33.6 1.6
351 1 48.0 32.0 0.0
352 3 49.6 33.6 1.6
353 1 0.0 35.2 0.0
354 3 1.6 36.8 1.6
355 1 3.2 35.2 0.0
356 3 4.8 36.8 1.6
357 3 6.4 35.2 0.0
358 1 8.0 36.8 1.6
359 3 9.6 35.2 0.0
360 3 11.2 36.8 1.6
361 1 12.8 35.2 0.0
362 2 14.4 36.8 1.6
363 2 16.0 35.2 0.0
364 2 17.6 36.8 1.6
365 2 19.2 35.2 0.0
366 2 20.8 36.8 1.6
367 2 22.4 35.2 0.0
368 2 24.0 36.8 1.6
369 3 25.6 35.2 0.0
370 3 27.2 36.8 1.6
371 3 28.8 35.2 0.0
372 2 30.4 36.8 1.6
373 3 32.0 35.2 0.0
374 2 33.6 36.8 1.6
375 3 35.2 35.2 0.0
376 1 36.8 36.8 1.6
377 2 38.4 35.2 0.0
378 3 40.0 36.8 1.6
379 2 41.6 35.2 0.0
380 3 43.2 36.8 1.6
381 1 44.8 35.2 0.0
382 2 46.4 36.8 1.6
383 2 48.0 35.2 0.0
384 2 49.6 36.8 1.6
385 2 0.0 38.4 0.0
386 2 1.6 40.0 1.6
387 1 3.2 38.4 0.0
388 2 4.8 40.0 1.6
389 3 6.4 38.4 0.0
390 2 8.0 40.0 1.6
391 3 9.6 38.4 0.0
392 2 11.2 40.0 1.6
393 2 12.8 38.4 0.0
394 1 14.4 40.0 1.6
395 2 16.0 38.4 0.0
396 1 17.6 40.0 1.6
397 2 19.2 38.4 0.0
398 2 20.8 40.0 1.6
399 3 22.4 38.4 0.0
400 3 24.0 40.0 1.6
401 3 25.6 38.4 0.0
402 3 27.2 40.0 1.6
403 2 28.8 38.4 0.0
404 2 30.4 40.0 1.6
405 2 32.0 38.4 0.0
406 2 33.6 40.0 1.6
407 3 35.2 38.4 0.0
408 3 36.8 40.0 1.6
409 3 38.4 38.4 0.0
410 1 40.0 40.0 1.6
411 3 41.6 38.4 0.0
412 2 43.2 40.0 1.6
413 2 44.8 38.4 0.0
414 3 46.4 40.0 1.6
415 2 48.0 38.4 0.0
416 2 49.6 40.0 1.6
417 3 0.0 41.6 0.0
418 2 1.6 43.2 1.6
419 2 3.2 41.6 0.0
420 2 4.8 43.2 1.6
421 2 6.4 41.6 0.0
422 1 8.0 43.2 1.6
423 2 9.6 41.6 0.0
424 2 11.2 43.2 1.6
425 2 12.8 41.6 0.0
426 2 14.4 43.2 1.6
427 2 16.0 41.6 0.0
428 3 17.6 43.2 1.6
429 3 19.2 41.6 0.0
430 2 20.8 43.2 1.6
431 3 22.4 41.6 0.0
432 2 24.0 43.2 1.6
433 3 25.6 41.6 0.0
434 1 27.2 43.2 1.6
435 3 28.8 41.6 0.0
436 2 30.4 43.2 1.6
437 2 32.0 41.6 0.0
438 3 33.6 43.2 1.6
439 1 35.2 41.6 0.0
440 3 36.8 43.2 1.6
441 2 38.4 41.6 0.0
442 2 40.0 43.2 1.6
443 2 41.6 41.6 0.0
444 3 43.2 43.2 1.6
445 1 44.8 41.6 0.0
446 2 46.4 43.2 1.6
447 1 48.0 41.6 0.0
448 2 49.6 43.2 1.6
449 2 0.0 44.8 0.0
450 2 1.6 46.4 1.6
451 3 3.2 44.8 0.0
452 2 4.8 46.4 1.6
453 3 6.4 44.8 0.0
454 1 8.0 46.4 1.6
455 2 9.6 44.8 0.0
456 2 11.2 46.4 1.6
457 1 12.8 44.8 0.0
458 2 14.4 46.4 1.6
459 2 16.0 44.8 0.0
460 2 17.6 46.4 1.6
461 2 19.2 44.8 0.0
462 2 20.8 46.4 1.6
463 1 22.4 44.8 0.0
464 2 24.0 46.4 1.6
465 3 25.6 44.8 0.0
466 1 27.2 46.4 1.6
467 3 28.8 44.8 0.0
468 2 30.4 46.4 1.6
469 3 32.0 44.8 0.0
470 3 33.6 46.4 1.6
471 3 35.2 44.8 0.0
472 2 36.8 46.4 1.6
473 3 38.4 44.8 0.0
474 1 40.0 46.4 1.6
475 2 41.6 44.8 0.0
476 1 43.2 46.4 1.6
477 3 44.8 44.8 0.0
478 2 46.4 46.4 1.6
479 2 48.0 44.8 0.0
480 2 49.6 46.4 1.6
481 3 0.0 48.0 0.0
482 2 1.6 49.6 1.6
483 2 3.2 48.0 0.0
484 2 4.8 49.6 1.6
485 2 6.4 48.0 0.0
486 2 8.0 49.6 1.6
487 1 9.6 48.0 0.0
488 3 11.2 49.6 1.6
489 1 12.8 48.0 0.0
490 2 14.4 49.6 1.6
491 1 16.0 48.0 0.0
492 3 17.6 49.6 1.6
493 2 19.2 48.0 0.0
494 2 20.8 49.6 1.6
495 2 22.4 48.0 0.0
496 3 24.0 49.6 1.6
497 3 25.6 48.0 0.0
498 2 27.2 49.6 1.6
499 2 28.8 48.0 0.0
500 2 30.4 49.6 1.6
501 2 32.0 48.0 0.0
502 2 33.6 49.6 1.6
503 2 35.2 48.0 0.0
504 2 36.8 49.6 1.6
505 3 38.4 48.0 0.0
506 3 40.0 49.6 1.6
507 3 41.6 48.0 0.0
508 2 43.2 49.6 1.6
509 3 44.8 48.0 0.0
510 2 46.4 49.6 1.6
511 3 48.0 48.0 0.0
512 3 49.6 49.6 1.6
513 1 0.0 0.0 3.2
514 2 1.6 1.6 4.8
515 2 3.2 0.0 3.2
516 2 4.8 1.6 4.8
517 3 6.4 0.0 3.2
518 1 8.0 1.6 4.8
519 2 9.6 0.0 3.2
520 1 11.2 1.6 4.8
521 3 12.8 0.0 3.2
522 1 14.4 1.6 4.8
523 3 16.0 0.0 3.2
524 2 17.6 1.6 4.8
525 2 19.2 0.0 3.2
526 2 20.8 1.6 4.8
527 2 22.4 0.0 3.2
528 1 24.0 1.6 4.8
529 2 25.6 0.0 3.2
530 2 27.2 1.6 4.8
531 3 28.8 0.0 3.2
532 3 30.4 1.6 4.8
533 1 32.0 0.0 3.2
534 2 33.6 1.6 4.8
535 2 35.2 0.0 3.2
536 2 36.8 1.6 4.8
537 2 38.4 0.0 3.2
538 2 40.0 1.6 4.8
539 1 41.6 0.0 3.2
540 2 43.2 1.6 4.8
541 1 44.8 0.0 3.2
542 2 46.4 1.6 4.8
543 1 48.0 0.0 3.2
544 3 49.6 1.6 4.8
545 2 0.0 3.2 3.2
546 3 1.6 4.8 4.8
547 1 3.2 3.2 3.2
548 3 4.8 4.8 4.8
549 2 6.4 3.2 3.2
550 2 8.0 4.8 4.8
551 3 9.6 3.2 3.2
552 2 11.2 4.8 4.8
553 3 12.8 3.2 3.2
554 1 14.4 4.8 4.8
555 3 16.0 3.2 3.2
556 1 17.6 4.8 4.8
557 3 19.2 3.2 3.2
558 2 20.8 4.8 4.8
559 3 22.4 3.2 3.2
560 3 24.0 4.8 4.8
561 3 25.6 3.2 3.2
562 3 27.2 4.8 4.8
563 2 28.8 3.2 3.2
564 2 30.4 4.8 4.8
565 1 32.0 3.2 3.2
566 3 33.6 4.8 4.8
567 2 35.2 3.2 3.2
568 2 36.8 4.8 4.8
569 3 38.4 3.2 3.2
570 3 40.0 4.8 4.8
571 2 41.6 3.2 3.2
572 3 43.2 4.8 4.8
573 1 44.8 3.2 3.2
574 2 46.4 4.8 4.8
575 1 48.0 3.2 3.2
576 3 49.6 4.8 4.8
577 2 0.0 6.4 3.2
578 3 1.6 8.0 4.8
579 2 3.2 6.4 3.2
580 3 4.8 8.0 4.8
581 1 6.4 6.4 3.2
582 2 8.0 8.0 4.8
583 2 9.6 6.4 3.2
584 2 11.2 8.0 4.8
585 2 12.8 6.4 3.2
586 2 14.4 8.0 4.8
587 3 16.0 6.4 3.2
588 1 17.6 8.0 4.8
589 2 19.2 6.4 3.2
590 2 20.8 8.0 4.8
591 2 22.4 6.4 3.2
592 2 24.0 8.0 4.8
593 1 25.6 6.4 3.2
594 2 27.2 8.0 4.8
595 2 28.8 6.4 3.2
596 2 30.4 8.0 4.8
597 2 32.0 6.4 3.2
598 2 33.6 8.0 4.8
599 1 35.2 6.4 3.2
600 2 36.8 8.0 4.8
601 1 38.4 6.4 3.2
602 3 40.0 8.0 4.8
603 3 41.6 6.4 3.2
604 3 43.2 8.0 4.8
605 3 44.8 6.4 3.2
606 1 46.4 8.0 4.8
607 3 48.0 6.4 3.2
608 1 49.6 8.0 4.8
609 2 0.0 9.6 3.2
610 2 1.6 11.2 4.8
611 1 3.2 9.6 3.2
612 3 4.8 11.2 4.8
613 2 6.4 9.6 3.2
614 1 8.0 11.2 4.8
615 2 9.6 9.6 3.2
616 1 11.2 11.2 4.8
617 2 12.8 9.6 3.2
618 2 14.4 11.2 4.8
619 2 16.0 9.6 3.2
620 3 17.6 11.2 4.8
621 3 19.2 9.6 3.2
622 3 20.8 11.2 4.8
623 2 22.4 9.6 3.2
624 3 24.0 11.2 4.8
625 3 25.6 9.6 3.2
626 3 27.2 11.2 4.8
627 3 28.8 9.6 3.2
628 1 30.4 11.2 4.8
629 2 32.0 9.6 3.2
630 2 33.6 11.2 4.8
631 1 35.2 9.6 3.2
632 3 36.8 11.2 4.8
633 1 38.4 9.6 3.2
634 3 40.0 11.2 4.8
635 3 41.6 9.6 3.2
636 3 43.2 11.2 4.8
637 2 44.8 9.6 3.2
638 3 46.4 11.2 4.8
639 3 48.0 9.6 3.2
640 2 49.6 11.2 4.8
641 2 0.0 12.8 3.2
642 1 1.6 14.4 4.8
643 3 3.2 12.8 3.2
644 2 4.8 14.4 4.8
645 2 6.4 12.8 3.2
646 2 8.0 14.4 4.8
647 2 9.6 12.8 3.2
648 2 11.2 14.4 4.8
649 3 12.8 12.8 3.2
650 2 14.4 14.4 4.8
651 2 16.0 12.8 3.2
652 2 17.6 14.4 4.8
653 1 19.2 12.8 3.2
654 2 20.8 14.4 4.8
655 2 22.4 12.8 3.2
656 2 24.0 14.4 4.8
657 3 25.6 12.8 3.2
658 3 27.2 14.4 4.8
659 3 28.8 12.8 3.2
660 1 30.4 14.4 4.8
661 3 32.0 12.8 3.2
662 2 33.6 14.4 4.8
663 3 35.2 12.8 3.2
664 1 36.8 14.4 4.8
665 3 38.4 12.8 3.2
666 1 40.0 14.4 4.8
667 2 41.6 12.8 3.2
668 2 43.2 14.4 4.8
669 1 44.8 12.8 3.2
670 2 46.4 14.4 4.8
671 2 48.0 12.8 3.2
672 1 49.6 14.4 4.8
673 2 0.0 16.0 3.2
674 1 1.6 17.6 4.8
675 2 3.2 16.0 3.2
676 2 4.8 17.6 4.8
677 2 6.4 16.0 3.2
678 3 8.0 17.6 4.8
679 1 9.6 16.0 3.2
680 2 11.2 17.6 4.8
681 3 12.8 16.0 3.2
682 1 14.4 17.6 4.8
683 2 16.0 16.0 3.2
684 1 17.6 17.6 4.8
685 2 19.2 16.0 3.2
686 3 20.8 17.6 4.8
687 2 22.4 16.0 3.2
688 2 24.0 17.6 4.8
689 1 25.6 16.0 3.2
690 3 27.2 17.6 4.8
691 3 28.8 16.0 3.2
692 2 30.4 17.6 4.8
693 3 32.0 16.0 3.2
694 3 33.6 17.6 4.8
695 2 35.2 16.0 3.2
696 3 36.8 17.6 4.8
697 2 38.4 16.0 3.2
698 2 40.0 17.6 4.8
699 2 41.6 16.0 3.2
700 3 43.2 17.6 4.8
701 1 44.8 16.0 3.2
702 3 46.4 17.6 4.8
703 3 48.0 16.0 3.2
704 2 49.6 17.6 4.8
705 3 0.0 19.2 3.2
706 1 1.6 20.8 4.8
707 3 3.2 19.2 3.2
708 3 4.8 20.8 4.8
709 2 6.4 19.2 3.2
710 2 8.0 20.8 4.8
711 2 9.6 19.2 3.2
712 2 11.2 20.8 4.8
713 3 12.8 19.2 3.2
714 1 14.4 20.8 4.8
715 3 16.0 19.2 3.2
716 2 17.6 20.8 4.8
717 2 19.2 19.2 3.2
718 3 20.8 20.8 4.8
719 2 22.4 19.2 3.2
720 2 24.0 20.8 4.8
721 2 25.6 19.2 3.2
722 2 27.2 20.8 4.8
723 2 28.8 19.2 3.2
724 1 30.4 20.8 4.8
725 3 32.0 19.2 3.2
726 3 33.6 20.8 4.8
727 2 35.2 19.2 3.2
728 2 36.8 20.8 4.8
729 1 38.4 19.2 3.2
730 3 40.0 20.8 4.8
731 2 41.6 19.2 3.2
732 3 43.2 20.8 4.8
733 1 44.8 19.2 3.2
734 3 46.4 20.8 4.8
735 2 48.0 19.2 3.2
736 2 49.6 20.8 4.8
737 2 0.0 22.4 3.2
738 2 1.6 24.0 4.8
739 3 3.2 22.4 3.2
740 2 4.8 24.0 4.8
741 2 6.4 22.4 3.2
742 2 8.0 24.0 4.8
743 3 9.6 22.4 3.2
744 3 11.2 24.0 4.8
745 3 12.8 22.4 3.2
746 3 14.4 24.0 4.8
747 3 16.0 22.4 3.2
748 1 17.6 24.0 4.8
749 3 19.2 22.4 3.2
750 3 20.8 24.0 4.8
751 3 22.4 22.4 3.2
752 2 24.0 24.0 4.8
753 3 25.6 22.4 3.2
754 2 27.2 24.0 4.8
755 3 28.8 22.4 3.2
756 2 30.4 24.0 4.8
757 2 32.0 22.4 3.2
758 2 33.6 24.0 4.8
759 2 35.2 22.4 3.2
760 2 36.8 24.0 4.8
761 2 38.4 22.4 3.2
762 3 40.0 24.0 4.8
763 3 41.6 22.4 3.2
764 3 43.2 24.0 4.8
765 1 44.8 22.4 3.2
766 3 46.4 24.0 4.8
767 3 48.0 22.4 3.2
768 1 49.6 24.0 4.8
769 2 0.0 25.6 3.2
770 1 1.6 27.2 4.8
771 3 3.2 25.6 3.2
772 3 4.8 27.2 4.8
773 1 6.4 25.6 3.2
774 3 8.0 27.2 4.8
775 2 9.6 25.6 3.2
776 3 11.2 27.2 4.8
777 3 12.8 25.6 3.2
778 3 14.4 27.2 4.8
779 3 16.0 25.6 3.2
780 1 17.6 27.2 4.8
781 3 19.2 25.6 3.2
782 2 20.8 27.2 4.8
783 3 22.4 25.6 3.2
784 3 24.0 27.2 4.8
785 2 25.6 25.6 3.2
786 2 27.2 27.2 4.8
787 2 28.8 25.6 3.2
788 2 30.4 27.2 4.8
789 2 32.0 25.6 3.2
790 3 33.6 27.2 4.8
791 2 35.2 25.6 3.2
792 3 36.8 27.2 4.8
793 1 38.4 25.6 3.2
794 3 40.0 27.2 4.8
795 1 41.6 25.6 3.2
796 3 43.2 27.2 4.8
797 1 44.8 25.6 3.2
798 3 46.4 27.2 4.8
799 3 48.0 25.6 3.2
800 1 49.6 27.2 4.8
801 3 0.0 28.8 3.2
802 1 1.6 30.4 4.8
803 3 3.2 28.8 3.2
804 1 4.8 30.4 4.8
805 3 6.4 28.8 3.2
806 1 8.0 30.4 4.8
807 3 9.6 28.8 3.2
808 1 11.2 30.4 4.8
809 3 12.8 28.8 3.2
810 1 14.4 30.4 4.8
811 2 16.0 28.8 3.2
812 1 17.6 30.4 4.8
813 2 19.2 28.8 3.2
814 1 20.8 30.4 4.8
815 2 22.4 28.8 3.2
816 2 24.0 30.4 4.8
817 2 25.6 28.8 3.2
818 1 27.2 30.4 4.8
819 2 28.8 28.8 3.2
820 2 30.4 30.4 4.8
821 2 32.0 28.8 3.2
822 3 33.6 30.4 4.8
823 2 35.2 28.8 3.2
824 1 36.8 30.4 4.8
825 3 38.4 28.8 3.2
826 1 40.0 30.4 4.8
827 3 41.6 28.8 3.2
828 3 43.2 30.4 4.8
829 1 44.8 28.8 3.2
830 2 46.4 30.4 4.8
831 3 48.0 28.8 3.2
832 1 49.6 30.4 4.8
833 2 0.0 32.0 3.2
834 3 1.6 33.6 4.8
835 3 3.2 32.0 3.2
836 3 4.8 33.6 4.8
837 3 6.4 32.0 3.2
838 1 8.0 33.6 4.8
839 3 9.6 32.0 3.2
840 3 11.2 33.6 4.8
841 2 12.8 32.0 3.2
842 2 14.4 33.6 4.8
843 2 16.0 32.0 3.2
844 1 17.6 33.6 4.8
845 2 19.2 32.0 3.2
846 2 20.8 33.6 4.8
847 3 22.4 32.0 3.2
848 3 24.0 33.6 4.8
849 2 25.6 32.0 3.2
850 2 27.2 33.6 4.8
851 2 28.8 32.0 3.2
852 3 30.4 33.6 4.8
853 2 32.0 32.0 3.2
854 2 33.6 33.6 4.8
855 2 35.2 32.0 3.2
856 2 36.8 33.6 4.8
857 3 38.4 32.0 3.2
858 1 40.0 33.6 4.8
859 3 41.6 32.0 3.2
860 2 43.2 33.6 4.8
861 1 44.8 32.0 3.2
862 3 46.4 33.6 4.8
863 3 48.0 32.0 3.2
864 2 49.6 33.6 4.8
865 1 0.0 35.2 3.2
866 3 1.6 36.8 4.8
867 1 3.2 35.2 3.2
868 3 4.8 36.8 4.8
869 3 6.4 35.2 3.2
870 3 8.0 36.8 4.8
871 3 9.6 35.2 3.2
872 3 11.2 36.8 4.8
873 1 12.8 35.2 3.2
874 2 14.4 36.8 4.8
875 3 16.0 35.2 3.2
876 2 17.6 36.8 4.8
877 2 19.2 35.2 3.2
878 3 20.8 36.8 4.8
879 1 22.4 35.2 3.2
880 3 24.0 36.8 4.8
881 1 25.6 35.2 3.2
882 3 27.2 36.8 4.8
883 1 28.8 35.2 3.2
884 3 30.4 36.8 4.8
885 2 32.0 35.2 3.2
886 2 33.6 36.8 4.8
887 2 35.2 35.2 3.2
888 2 36.8 36.8 4.8
889 2 38.4 35.2 3.2
890 2 40.0 36.8 4.8
891 2 41.6 35.2 3.2
892 3 43.2 36.8 4.8
893 1 44.8 35.2 3.2
894 2 46.4 36.8 4.8
895 3 48.0 35.2 3.2
896 2 49.6 36.8 4.8
897 1 0.0 38.4 3.2
898 3 1.6 40.0 4.8
899 2 3.2 38.4 3.2
900 1 4.8 40.0 4.8
901 3 6.4 38.4 3.2
902 1 8.0 40.0 4.8
903 3 9.6 38.4 3.2
904 3 11.2 40.0 4.8
905 3 12.8 38.4 3.2
906 1 14.4 40.0 4.8
907 3 16.0 38.4 3.2
908 1 17.6 40.0 4.8
909 2 19.2 38.4 3.2
910 3 20.8 40.0 4.8
911 1 22.4 38.4 3.2
912 3 24.0 40.0 4.8
913 1 25.6 38.4 3.2
914 3 27.2 40.0 4.8
915 1 28.8 38.4 3.2
916 3 30.4 40.0 4.8
917 2 32.0 38.4 3.2
918 2 33.6 40.0 4.8
919 2 35.2 38.4 3.2
920 2 36.8 40.0 4.8
921 3 38.4 38.4 3.2
922 3 40.0 40.0 4.8
923 2 41.6 38.4 3.2
924 2 43.2 40.0 4.8
925 1 44.8 38.4 3.2
926 3 46.4 40.0 4.8
927 3 48.0 38.4 3.2
928 2 49.6 40.0 4.8
929 2 0.0 41.6 3.2
930 2 1.6 43.2 4.8
931 2 3.2 41.6 3.2
932 2 4.8 43.2 4.8
933 2 6.4 41.6 3.2
934 1 8.0 43.2 4.8
935 3 9.6 41.6 3.2
936 2 11.2 43.2 4.8
937 3 12.8 41.6 3.2
938 1 14.4 43.2 4.8
939 3 16.0 41.6 3.2
940 1 17.6 43.2 4.8
941 3 19.2 41.6 3.2
942 3 20.8 43.2 4.8
943 2 22.4 41.6 3.2
944 3 24.0 43.2 4.8
945 3 25.6 41.6 3.2
946 1 27.2 43.2 4.8
947 2 28.8 41.6 3.2
948 3 30.4 43.2 4.8
949 1 32.0 41.6 3.2
950 3 33.6 43.2 4.8
951 1 35.2 41.6 3.2
952 3 36.8 43.2 4.8
953 2 38.4 41.6 3.2
954 2 40.0 43.2 4.8
955 3 41.6 41.6 3.2
956 3 43.2 43.2 4.8
957 1 44.8 41.6 3.2
958 3 46.4 43.2 4.8
959 2 48.0 41.6 3.2
960 2 49.6 43.2 4.8
961 1 0.0 44.8 3.2
962 2 1.6 46.4 4.8
963 1 3.2 44.8 3.2
964 2 4.8 46.4 4.8
965 2 6.4 44.8 3.2
966 1 8.0 46.4 4.8
967 3 9.6 44.8 3.2
968 1 11.2 46.4 4.8
969 2 12.8 44.8 3.2
970 1 14.4 46.4 4.8
971 3 16.0 44.8 3.2
972 1 17.6 46.4 4.8
973 2 19.2 44.8 3.2
974 1 20.8 46.4 4.8
975 2 22.4 44.8 3.2
976 1 24.0 46.4 4.8
977 3 25.6 44.8 3.2
978 1 27.2 46.4 4.8
979 2 28.8 44.8 3.2
980 2 30.4 46.4 4.8
981 1 32.0 44.8 3.2
982 2 33.6 46.4 4.8
983 1 35.2 44.8 3.2
984 3 36.8 46.4 4.8
985 2 38.4 44.8 3.2
986 2 40.0 46.4 4.8
987 2 41.6 44.8 3.2
988 3 43.2 46.4 4.8
989 3 44.8 44.8 3.2
990 2 46.4 46.4 4.8
991 2 48.0 44.8 3.2
992 2 49.6 46.4 4.8
993 2 0.0 48.0 3.2
994 3 1.6 49.6 4.8
995 1 3.2 48.0 3.2
996 2 4.8 49.6 4.8
997 2 6.4 48.0 3.2
998 2 8.0 49.6 4.8
999 3 9.6 48.0 3.2
1000 3 11.2 49.6 4.8
1001 3 12.8 48.0 3.2
1002 1 14.4 49.6 4.8
1003 2 16.0 48.0 3.2
1004 2 17.6 49.6 4.8
1005 2 19.2 48.0 3.2
1006 3 20.8 49.6 4.8
1007 3 22.4 48.0 3.2
1008 2 24.0 49.6 4.8
1009 3 25.6 48.0 3.2
1010 3 27.2 49.6 4.8
1011 2 28.8 48.0 3.2
1012 3 30.4 49.6 4.8
1013 2 32.0 48.0 3.2
1014 3 33.6 49.6 4.8
1015 2 35.2 48.0 3.2
1016 1 36.8 49.6 4.8
1017 3 38.4 48.0 3.2
1018 2 40.0 49.6 4.8
1019 3 41.6 48.0 3.2
1020 3 43.2 49.6 4.8
1021 3 44.8 48.0 3.2
1022 2 46.4 49.6 4.8
1023 2 48.0 48.0 3.2
1024 3 49.6 49.6 4.8
1025 3 0.0 0.0 6.4
1026 3 1.6 1.6 8.0
1027 3 3.2 0.0 6.4
1028 3 4.8 1.6 8.0
1029 3 6.4 0.0 6.4
1030 1 8.0 1.6 8.0
1031 3 9.6 0.0 6.4
1032 1 11.2 1.6 8.0
1033 3 12.8 0.0 6.4
1034 1 14.4 1.6 8.0
1035 3 16.0 0.0 6.4
1036 2 17.6 1.6 8.0
1037 2 19.2 0.0 6.4
1038 2 20.8 1.6 8.0
1039 3 22.4 0.0 6.4
1040 2 24.0 1.6 8.0
1041 3 25.6 0.0 6.4
1042 1 27.2 1.6 8.0
1043 3 28.8 0.0 6.4
1044 2 30.4 1.6 8.0
1045 3 32.0 0.0 6.4
1046 2 33.6 1.6 8.0
1047 3 35.2 0.0 6.4
1048 2 36.8 1.6 8.0
1049 1 38.4 0.0 6.4
1050 2 40.0 1.6 8.0
1051 2 41.6 0.0 6.4
1052 2 43.2 1.6 8.0
1053 2 44.8 0.0 6.4
1054 2 46.4 1.6 8.0
1055 3 48.0 0.0 6.4
1056 2 49.6 1.6 8.0
1057 3 0.0 3.2 6.4
1058 3 1.6 4.8 8.0
1059 1 3.2 3.2 6.4
1060 3 4.8 4.8 8.0
1061 3 6.4 3.2 6.4
1062 2 8.0 4.8 8.0
1063 3 9.6 3.2 6.4
1064 3 11.2 4.8 8.0
1065 3 12.8 3.2 6.4
1066 1 14.4 4.8 8.0
1067 3 16.0 3.2 6.4
1068 1 17.6 4.8 8.0
1069 2 19.2 3.2 6.4
1070 1 20.8 4.8 8.0
1071 3 22.4 3.2 6.4
1072 2 24.0 4.8 8.0
1073 3 25.6 3.2 6.4
1074 3 27.2 4.8 8.0
1075 2 28.8 3.2 6.4
1076 2 30.4 4.8 8.0
1077 2 32.0 3.2 6.4
1078 2 33.6 4.8 8.0
1079 2 35.2 3.2 6.4
1080 2 36.8 4.8 8.0
1081 2 38.4 3.2 6.4
1082 1 40.0 4.8 8.0
1083 3 41.6 3.2 6.4
1084 2 43.2 4.8 8.0
1085 2 44.8 3.2 6.4
1086 3 46.4 4.8 8.0
1087 2 48.0 3.2 6.4
1088 1 49.6 4.8 8.0
1089 3 0.0 6.4 6.4
1090 3 1.6 8.0 8.0
1091 1 3.2 6.4 6.4
1092 2 4.8 8.0 8.0
1093 2 6.4 6.4 6.4
1094 2 8.0 8.0 8.0
1095 3 9.6 6.4 6.4
1096 1 11.2 8.0 8.0
1097 2 12.8 6.4 6.4
1098 2 14.4 8.0 8.0
1099 3 16.0 6.4 6.4
1100 2 17.6 8.0 8.0
1101 3 19.2 6.4 6.4
1102 2 20.8 8.0 8.0
1103 3 22.4 6.4 6.4
1104 2 24.0 8.0 8.0
1105 1 25.6 6.4 6.4
1106 2 27.2 8.0 8.0
1107 2 28.8 6.4 6.4
1108 2 30.4 8.0 8.0
1109 2 32.0 6.4 6.4
1110 2 33.6 8.0 8.0
1111 2 35.2 6.4 6.4
1112 1 36.8 8.0 8.0
1113 3 38.4 6.4 6.4
1114 1 40.0 8.0 8.0
1115 3 41.6 6.4 6.4
1116 1 43.2 8.0 8.0
1117 3 44.8 6.4 6.4
1118 2 46.4 8.0 8.0
1119 3 48.0 6.4 6.4
1120 2 49.6 8.0 8.0
1121 3 0.0 9.6 6.4
1122 3 1.6 11.2 8.0
1123 1 3.2 9.6 6.4
1124 3 4.8 11.2 8.0
1125 3 6.4 9.6 6.4
1126 1 8.0 11.2 8.0
1127 2 9.6 9.6 6.4
1128 1 11.2 11.2 8.0
1129 3 12.8 9.6 6.4
1130 2 14.4 11.2 8.0
1131 3 16.0 9.6 6.4
1132 1 17.6 11.2 8.0
1133 3 19.2 9.6 6.4
1134 3 20.8 11.2 8.0
1135 3 22.4 9.6 6.4
1136 2 24.0 11.2 8.0
1137 3 25.6 9.6 6.4
1138 3 27.2 11.2 8.0
1139 3 28.8 9.6 6.4
1140 2 30.4 11.2 8.0
1141 2 32.0 9.6 6.4
1142 2 33.6 11.2 8.0
1143 2 35.2 9.6 6.4
1144 1 36.8 11.2 8.0
1145 3 38.4 9.6 6.4
1146 1 40.0 11.2 8.0
1147 3 41.6 9.6 6.4
1148 1 43.2 11.2 8.0
1149 3 44.8 9.6 6.4
1150 1 46.4 11.2 8.0
1151 3 48.0 9.6 6.4
1152 2 49.6 11.2 8.0
1153 2 0.0 12.8 6.4
1154 2 1.6 14.4 8.0
1155 2 3.2 12.8 6.4
1156 3 4.8 14.4 8.0
1157 3 6.4 12.8 6.4
1158 1 8.0 14.4 8.0
1159 2 9.6 12.8 6.4
1160 2 11.2 14.4 8.0
1161 3 12.8 12.8 6.4
1162 2 14.4 14.4 8.0
1163 3 16.0 12.8 6.4
1164 1 17.6 14.4 8.0
1165 2 19.2 12.8 6.4
1166 3 20.8 14.4 8.0
1167 2 22.4 12.8 6.4
1168 2 24.0 14.4 8.0
1169 3 25.6 12.8 6.4
1170 2 27.2 14.4 8.0
1171 3 28.8 12.8 6.4
1172 2 30.4 14.4 8.0
1173 3 32.0 12.8 6.4
1174 3 33.6 14.4 8.0
1175 3 35.2 12.8 6.4
1176 2 36.8 14.4 8.0
1177 3 38.4 12.8 6.4
1178 2 40.0 14.4 8.0
1179 3 41.6 12.8 6.4
1180 1 43.2 14.4 8.0
1181 2 44.8 12.8 6.4
1182 2 46.4 14.4 8.0
1183 2 48.0 12.8 6.4
1184 3 49.6 14.4 8.0
1185 2 0.0 16.0 6.4
1186 3 1.6 17.6 8.0
1187 3 3.2 16.0 6.4
1188 3 4.8 17.6 8.0
1189 2 6.4 16.0 6.4
1190 2 8.0 17.6 8.0
1191 2 9.6 16.0 6.4
1192 2 11.2 17.6 8.0
1193 2 12.8 16.0 6.4
1194 2 14.4 17.6 8.0
1195 2 16.0 16.0 6.4
1196 2 17.6 17.6 8.0
1197 2 19.2 16.0 6.4
1198 3 20.8 17.6 8.0
1199 1 22.4 16.0 6.4
1200 2 24.0 17.6 8.0
1201 2 25.6 16.0 6.4
1202 2 27.2 17.6 8.0
1203 3 28.8 16.0 6.4
1204 3 30.4 17.6 8.0
1205 2 32.0 16.0 6.4
1206 3 33.6 17.6 8.0
1207 2 35.2 16.0 6.4
1208 2 36.8 17.6 8.0
1209 2 38.4 16.0 6.4
1210 1 40.0 17.6 8.0
1211 2 41.6 16.0 6.4
1212 3 43.2 17.6 8.0
1213 2 44.8 16.0 6.4
1214 2 46.4 17.6 8.0
1215 3 48.0 16.0 6.4
1216 2 49.6 17.6 8.0
1217 2 0.0 19.2 6.4
1218 2 1.6 20.8 8.0
1219 3 3.2 19.2 6.4
1220 2 4.8 20.8 8.0
1221 1 6.4 19.2 6.4
1222 2 8.0 20.8 8.0
1223 2 9.6 19.2 6.4
1224 1 11.2 20.8 8.0
1225 3 12.8 19.2 6.4
1226 1 14.4 20.8 8.0
1227 3 16.0 19.2 6.4
1228 1 17.6 20.8 8.0
1229 3 19.2 19.2 6.4
1230 2 20.8 20.8 8.0
1231 1 22.4 19.2 6.4
1232 2 24.0 20.8 8.0
1233 2 25.6 19.2 6.4
1234 3 27.2 20.8 8.0
1235 1 28.8 19.2 6.4
1236 3 30.4 20.8 8.0
1237 3 32.0 19.2 6.4
1238 2 33.6 20.8 8.0
1239 3 35.2 19.2 6.4
1240 1 36.8 20.8 8.0
1241 2 38.4 19.2 6.4
1242 1 40.0 20.8 8.0
1243 3 41.6 19.2 6.4
1244 2 43.2 20.8 8.0
1245 1 44.8 19.2 6.4
1246 3 46.4 20.8 8.0
1247 2 48.0 19.2 6.4
1248 3 49.6 20.8 8.0
1249 2 0.0 22.4 6.4
1250 2 1.6 24.0 8.0
1251 2 3.2 22.4 6.4
1252 2 4.8 24.0 8.0
1253 2 6.4 22.4 6.4
1254 2 8.0 24.0 8.0
1255 2 9.6 22.4 6.4
1256 3 11.2 24.0 8.0
1257 2 12.8 22.4 6.4
1258 2 14.4 24.0 8.0
1259 3 16.0 22.4 6.4
1260 1 17.6 24.0 8.0
1261 3 19.2 22.4 6.4
1262 3 20.8 24.0 8.0
1263 1 22.4 22.4 6.4
1264 3 24.0 24.0 8.0
1265 2 25.6 22.4 6.4
1266 2 27.2 24.0 8.0
1267 3 28.8 22.4 6.4
1268 3 30.4 24.0 8.0
1269 2 32.0 22.4 6.4
1270 2 33.6 24.0 8.0
1271 3 35.2 22.4 6.4
1272 2 36.8 24.0 8.0
1273 3 38.4 22.4 6.4
1274 3 40.0 24.0 8.0
1275 3 41.6 22.4 6.4
1276 2 43.2 24.0 8.0
1277 2 44.8 22.4 6.4
1278 2 46.4 24.0 8.0
1279 3 48.0 22.4 6.4
1280 2 49.6 24.0 8.0
1281 3 0.0 25.6 6.4
1282 1 1.6 27.2 8.0
1283 2 3.2 25.6 6.4
1284 3 4.8 27.2 8.0
1285 1 6.4 25.6 6.4
1286 3 8.0 27.2 8.0
1287 3 9.6 25.6 6.4
1288 1 11.2 27.2 8.0
1289 1 12.8 25.6 6.4
1290 2 14.4 27.2 8.0
1291 3 16.0 25.6 6.4
1292 1 17.6 27.2 8.0
1293 3 19.2 25.6 6.4
1294 2 20.8 27.2 8.0
1295 1 22.4 25.6 6.4
1296 2 24.0 27.2 8.0
1297 1 25.6 25.6 6.4
1298 2 27.2 27.2 8.0
1299 2 28.8 25.6 6.4
1300 2 30.4 27.2 8.0
1301 1 32.0 25.6 6.4
1302 3 33.6 27.2 8.0
1303 2 35.2 25.6 6.4
1304 2 36.8 27.2 8.0
1305 2 38.4 25.6 6.4
1306 2 40.0 27.2 8.0
1307 1 41.6 25.6 6.4
1308 3 43.2 27.2 8.0
1309 2 44.8 25.6 6.4
1310 1 46.4 27.2 8.0
1311 3 48.0 25.6 6.4
1312 1 49.6 27.2 8.0
1313 2 0.0 28.8 6.4
1314 2 1.6 30.4 8.0
1315 3 3.2 28.8 6.4
1316 1 4.8 30.4 8.0
1317 3 6.4 28.8 6.4
1318 3 8.0 30.4 8.0
1319 3 9.6 28.8 6.4
1320 1 11.2 30.4 8.0
1321 3 12.8 28.8 6.4
1322 2 14.4 30.4 8.0
1323 2 16.0 28.8 6.4
1324 3 17.6 30.4 8.0
1325 3 19.2 28.8 6.4
1326 3 20.8 30.4 8.0
1327 2 22.4 28.8 6.4
1328 2 24.0 30.4 8.0
1329 2 25.6 28.8 6.4
1330 2 27.2 30.4 8.0
1331 2 28.8 28.8 6.4
1332 3 30.4 30.4 8.0
1333 3 32.0 28.8 6.4
1334 3 33.6 30.4 8.0
1335 3 35.2 28.8 6.4
1336 3 36.8 30.4 8.0
1337 3 38.4 28.8 6.4
1338 2 40.0 30.4 8.0
1339 3 41.6 28.8 6.4
1340 3 43.2 30.4 8.0
1341 2 44.8 28.8 6.4
1342 1 46.4 30.4 8.0
1343 3 48.0 28.8 6.4
1344 1 49.6 30.4 8.0
1345 2 0.0 32.0 6.4
1346 2 1.6 33.6 8.0
1347 3 3.2 32.0 6.4
1348 2 4.8 33.6 8.0
1349 3 6.4 32.0 6.4
1350 3 8.0 33.6 8.0
1351 3 9.6 32.0 6.4
1352 3 11.2 33.6 8.0
1353 2 12.8 32.0 6.4
1354 2 14.4 33.6 8.0
1355 3 16.0 32.0 6.4
1356 2 17.6 33.6 8.0
1357 2 19.2 32.0 6.4
1358 2 20.8 33.6 8.0
1359 2 22.4 32.0 6.4
1360 2 24.0 33.6 8.0
1361 2 25.6 32.0 6.4
1362 2 27.2 33.6 8.0
1363 3 28.8 32.0 6.4
1364 2 30.4 33.6 8.0
1365 3 32.0 32.0 6.4
1366 3 33.6 33.6 8.0
1367 3 35.2 32.0 6.4
1368 3 36.8 33.6 8.0
1369 2 38.4 32.0 6.4
1370 3 40.0 33.6 8.0
1371 3 41.6 32.0 6.4
1372 3 43.2 33.6 8.0
1373 3 44.8 32.0 6.4
1374 2 46.4 33.6 8.0
1375 3 48.0 32.0 6.4
1376 3 49.6 33.6 8.0
1377 1 0.0 35.2 6.4
1378 2 1.6 36.8 8.0
1379 2 3.2 35.2 6.4
1380 3 4.8 36.8 8.0
1381 3 6.4 35.2 6.4
1382 2 8.0 36.8 8.0
1383 1 9.6 35.2 6.4
1384 2 11.2 36.8 8.0
1385 1 12.8 35.2 6.4
1386 3 14.4 36.8 8.0
1387 2 16.0 35.2 6.4
1388 3 17.6 36.8 8.0
1389 3 19.2 35.2 6.4
1390 1 20.8 36.8 8.0
1391 3 22.4 35.2 6.4
1392 1 24.0 36.8 8.0
1393 3 25.6 35.2 6.4
1394 2 27.2 36.8 8.0
1395 2 28.8 35.2 6.4
1396 2 30.4 36.8 8.0
1397 2 32.0 35.2 6.4
1398 3 33.6 36.8 8.0
1399 2 35.2 35.2 6.4
1400 3 36.8 36.8 8.0
1401 2 38.4 35.2 6.4
1402 2 40.0 36.8 8.0
1403 2 41.6 35.2 6.4
1404 2 43.2 36.8 8.0
1405 2 44.8 35.2 6.4
1406 1 46.4 36.8 8.0
1407 2 48.0 35.2 6.4
1408 2 49.6 36.8 8.0
1409 1 0.0 38.4 6.4
1410 2 1.6 40.0 8.0
1411 3 3.2 38.4 6.4
1412 1 4.8 40.0 8.0
1413 3 6.4 38.4 6.4
1414 1 8.0 40.0 8.0
1415 2 9.6 38.4 6.4
1416 2 11.2 40.0 8.0
1417 2 12.8 38.4 6.4
1418 1 14.4 40.0 8.0
1419 2 16.0 38.4 6.4
1420 2 17.6 40.0 8.0
1421 3 19.2 38.4 6.4
1422 1 20.8 40.0 8.0
1423 3 22.4 38.4 6.4
1424 1 24.0 40.0 8.0
1425 2 25.6 38.4 6.4
1426 1 27.2 40.0 8.0
1427 1 28.8 38.4 6.4
1428 2 30.4 40.0 8.0
1429 2 32.0 38.4 6.4
1430 3 33.6 40.0 8.0
1431 1 35.2 38.4 6.4
1432 2 36.8 40.0 8.0
1433 2 38.4 38.4 6.4
1434 2 40.0 40.0 8.0
1435 2 41.6 38.4 6.4
1436 1 43.2 40.0 8.0
1437 3 44.8 38.4 6.4
1438 2 46.4 40.0 8.0
1439 3 48.0 38.4 6.4
1440 2 49.6 40.0 8.0
1441 1 0.0 41.6 6.4
1442 2 1.6 43.2 8.0
1443 2 3.2 41.6 6.4
1444 3 4.8 43.2 8.0
1445 3 6.4 41.6 6.4
1446 1 8.0 43.2 8.0
1447 3 9.6 41.6 6.4
1448 3 11.2 43.2 8.0
1449 3 12.8 41.6 6.4
1450 1 14.4 43.2 8.0
1451 3 16.0 41.6 6.4
1452 2 17.6 43.2 8.0
1453 3 19.2 41.6 6.4
1454 3 20.8 43.2 8.0
1455 3 22.4 41.6 6.4
1456 1 24.0 43.2 8.0
1457 3 25.6 41.6 6.4
1458 1 27.2 43.2 8.0
1459 3 28.8 41.6 6.4
1460 1 30.4 43.2 8.0
1461 2 32.0 41.6 6.4
1462 3 33.6 43.2 8.0
1463 1 35.2 41.6 6.4
1464 3 36.8 43.2 8.0
1465 1 38.4 41.6 6.4
1466 2 40.0 43.2 8.0
1467 2 41.6 41.6 6.4
1468 3 43.2 43.2 8.0
1469 3 44.8 41.6 6.4
1470 2 46.4 43.2 8.0
1471 2 48.0 41.6 6.4
1472 2 49.6 43.2 8.0
1473 2 0.0 44.8 6.4
1474 2 1.6 46.4 8.0
1475 2 3.2 44.8 6.4
1476 2 4.8 46.4 8.0
1477 3 6.4 44.8 6.4
1478 1 8.0 46.4 8.0
1479 3 9.6 44.8 6.4
1480 3 11.2 46.4 8.0
1481 3 12.8 44.8 6.4
1482 2 14.4 46.4 8.0
1483 3 16.0 44.8 6.4
1484 3 17.6 46.4 8.0
1485 2 19.2 44.8 6.4
1486 3 20.8 46.4 8.0
1487 3 22.4 44.8 6.4
1488 1 24.0 46.4 8.0
1489 3 25.6 44.8 6.4
1490 2 27.2 46.4 8.0
1491 3 28.8 44.8 6.4
1492 1 30.4 46.4 8.0
1493 2 32.0 44.8 6.4
1494 1 33.6 46.4 8.0
1495 2 35.2 44.8 6.4
1496 2 36.8 46.4 8.0
1497 2 38.4 44.8 6.4
1498 1 40.0 46.4 8.0
1499 2 41.6 44.8 6.4
1500 2 43.2 46.4 8.0