ITEM: TIMESTEP
0
ITEM: NUMBER OF ATOMS
8192
ITEM: BOX BOUNDS pp pp pp
0.0000000000000000e+00 5.1200000000000003e+01
0.0000000000000000e+00 5.1200000000000003e+01
0.0000000000000000e+00 5.1200000000000003e+01
ITEM: ATOMS id type x y z c_eng
1 1 0 0 0 -11.9264
2 3 1.6 1.6 1.6 -11.4534
3 3 3.2 0 0 -11.419
4 3 4.8 1.6 1.6 -11.4992
5 3 6.4 0 0 -11.5551
6 2 8 1.6 1.6 -9.9512
7 2 9.6 0 0 -9.92134
8 2 11.2 1.6 1.6 -9.92152
9 1 12.8 0 0 -11.7421
10 1 14.4 1.6 1.6 -11.7822
11 2 16 0 0 -9.81786
12 3 17.6 1.6 1.6 -11.3808
13 2 19.2 0 0 -9.93198
14 1 20.8 1.6 1.6 -11.8982
15 3 22.4 0 0 -11.4705
16 3 24 1.6 1.6 -11.4318
17 3 25.6 0 0 -11.4997
18 1 27.2 1.6 1.6 -11.8125
19 2 28.8 0 0 -9.96259
20 3 30.4 1.6 1.6 -11.4675
21 2 32 0 0 -10.0012
22 3 33.6 1.6 1.6 -11.5064
23 2 35.2 0 0 -9.99196
24 1 36.8 1.6 1.6 -11.9113
25 3 38.4 0 0 -11.4345
26 2 40 1.6 1.6 -9.9284
27 1 41.6 0 0 -11.8757
28 2 43.2 1.6 1.6 -9.95503
29 2 44.8 0 0 -9.93843
30 2 46.4 1.6 1.6 -9.98842
31 2 48 0 0 -9.95357
32 3 49.6 1.6 1.6 -11.4283
33 3 0 3.2 0 -11.5039
34 1 1.6 4.8 1.6 -11.956
35 2 3.2 3.2 0 -9.94378
36 2 4.8 4.8 1.6 -9.89637
37 1 6.4 3.2 0 -11.8136
38 2 8 4.8 1.6 -9.87312
39 2 9.6 3.2 0 -9.94471
40 1 11.2 4.8 1.6 -11.8533
41 3 12.8 3.2 0 -11.3839
42 1 14.4 4.8 1.6 -11.88
43 3 16 3.2 0 -11.4693
44 3 17.6 4.8 1.6 -11.4888
45 2 19.2 3.2 0 -9.96419
46 1 20.8 4.8 1.6 -11.8376
47 3 22.4 3.2 0 -11.4268
48 3 24 4.8 1.6 -11.3827
49 2 25.6 3.2 0 -9.92097
50 1 27.2 4.8 1.6 -11.7112
51 2 28.8 3.2 0 -9.89438
52 3 30.4 4.8 1.6 -11.4376
53 3 32 3.2 0 -11.5568
54 3 33.6 4.8 1.6 -11.512
55 3 35.2 3.2 0 -11.5709
56 2 36.8 4.8 1.6 -9.96722
57 3 38.4 3.2 0 -11.5139
58 3 40 4.8 1.6 -11.3465
59 3 41.6 3.2 0 -11.4681
60 2 43.2 4.8 1.6 -9.91597
61 2 44.8 3.2 0 -9.9829
62 2 46.4 4.8 1.6 -9.955
63 2 48 3.2 0 -9.96723
64 2 49.6 4.8 1.6 -9.93566
65 2 0 6.4 0 -9.94152
66 3 1.6 8 1.6 -11.4353
67 3 3.2 6.4 0 -11.4945
68 2 4.8 8 1.6 -9.96731
69 2 6.4 6.4 0 -9.86032
70 3 8 8 1.6 -11.3559
71 3 9.6 6.4 0 -11.3451
72 1 11.2 8 1.6 -11.834
73 3 12.8 6.4 0 -11.421
74 2 14.4 8 1.6 -9.90375
75 3 16 6.4 0 -11.5937
76 3 17.6 8 1.6 -11.4826
77 3 19.2 6.4 0 -11.4266
78 1 20.8 8 1.6 -11.866
79 3 22.4 6.4 0 -11.4436
80 3 24 8 1.6 -11.4089
81 3 25.6 6.4 0 -11.3159
82 2 27.2 8 1.6 -9.91713
83 3 28.8 6.4 0 -11.4149
84 3 30.4 8 1.6 -11.5638
85 3 32 6.4 0 -11.5515
86 3 33.6 8 1.6 -11.4701
87 3 35.2 6.4 0 -11.4725
88 2 36.8 8 1.6 -9.8824
89 2 38.4 6.4 0 -9.95821
90 1 40 8 1.6 -11.7244
91 2 41.6 6.4 0 -9.89224
92 1 43.2 8 1.6 -11.7978
93 2 44.8 6.4 0 -9.86537
94 2 46.4 8 1.6 -9.86152
95 1 48 6.4 0 -11.8243
96 1 49.6 8 1.6 -11.8239
97 2 0 9.6 0 -9.967
98 2 1.6 11.2 1.6 -9.88955
99 2 3.2 9.6 0 -9.91834
100 2 4.8 11.2 1.6 -9.89581
101 1 6.4 9.6 0 -11.8294
102 2 8 11.2 1.6 -9.95756
103 1 9.6 9.6 0 -11.8097
104 2 11.2 11.2 1.6 -9.85321
105 2 12.8 9.6 0 -9.89929
106 1 14.4 11.2 1.6 -11.8265
107 2 16 9.6 0 -9.95257
108 3 17.6 11.2 1.6 -11.479
109 1 19.2 9.6 0 -11.8099
110 2 20.8 11.2 1.6 -9.93494
111 3 22.4 9.6 0 -11.5056
112 1 24 11.2 1.6 -11.9988
113 3 25.6 9.6 0 -11.4898
114 1 27.2 11.2 1.6 -11.9785
115 3 28.8 9.6 0 -11.5741
116 2 30.4 11.2 1.6 -9.92512
117 3 32 9.6 0 -11.5348
118 3 33.6 11.2 1.6 -11.4876
119 2 35.2 9.6 0 -10.0202
120 3 36.8 11.2 1.6 -11.4466
121 3 38.4 9.6 0 -11.3436
122 2 40 11.2 1.6 -9.88237
123 3 41.6 9.6 0 -11.3464
124 1 43.2 11.2 1.6 -11.6882
125 2 44.8 9.6 0 -9.88508
126 3 46.4 11.2 1.6 -11.4453
127 2 48 9.6 0 -9.96665
128 2 49.6 11.2 1.6 -10.0024
129 2 0 12.8 0 -9.96962
130 2 1.6 14.4 1.6 -9.97125
131 2 3.2 12.8 0 -9.91623
132 2 4.8 14.4 1.6 -9.93579
133 2 6.4 12.8 0 -9.92324
134 3 8 14.4 1.6 -11.4115
135 2 9.6 12.8 0 -9.96402
136 2 11.2 14.4 1.6 -9.90384
137 3 12.8 12.8 0 -11.3265
138 1 14.4 14.4 1.6 -11.8561
139 3 16 12.8 0 -11.3568
140 3 17.6 14.4 1.6 -11.4955
141 2 19.2 12.8 0 -9.9705
142 1 20.8 14.4 1.6 -11.8961
143 3 22.4 12.8 0 -11.4981
144 2 24 14.4 1.6 -9.88503
145 3 25.6 12.8 0 -11.4908
146 2 27.2 14.4 1.6 -9.94518
147 3 28.8 12.8 0 -11.5001
148 1 30.4 14.4 1.6 -11.883
149 2 32 12.8 0 -9.97792
150 1 33.6 14.4 1.6 -11.9268
151 3 35.2 12.8 0 -11.5034
152 3 36.8 14.4 1.6 -11.4286
153 1 38.4 12.8 0 -11.8742
154 2 40 14.4 1.6 -9.86668
155 1 41.6 12.8 0 -11.7823
156 2 43.2 14.4 1.6 -9.88446
157 1 44.8 12.8 0 -11.8086
158 3 46.4 14.4 1.6 -11.4947
159 3 48 12.8 0 -11.4488
160 3 49.6 14.4 1.6 -11.5545
161 2 0 16 0 -9.94302
162 2 1.6 17.6 1.6 -9.94445
163 1 3.2 16 0 -11.8424
164 2 4.8 17.6 1.6 -9.92206
165 2 6.4 16 0 -9.95183
166 2 8 17.6 1.6 -9.95609
167 3 9.6 16 0 -11.4325
168 3 11.2 17.6 1.6 -11.4489
169 3 12.8 16 0 -11.4515
170 2 14.4 17.6 1.6 -9.93194
171 3 16 16 0 -11.5958
172 3 17.6 17.6 1.6 -11.5978
173 3 19.2 16 0 -11.4929
174 2 20.8 17.6 1.6 -9.90628
175 1 22.4 16 0 -11.833
176 1 24 17.6 1.6 -11.8529
177 2 25.6 16 0 -9.9398
178 3 27.2 17.6 1.6 -11.4756
179 2 28.8 16 0 -9.93763
180 2 30.4 17.6 1.6 -9.97903
181 2 32 16 0 -9.9508
182 3 33.6 17.6 1.6 -11.4052
183 3 35.2 16 0 -11.545
184 3 36.8 17.6 1.6 -11.5613
185 1 38.4 16 0 -11.8783
186 2 40 17.6 1.6 -9.95877
187 2 41.6 16 0 -9.89435
188 3 43.2 17.6 1.6 -11.5087
189 3 44.8 16 0 -11.4357
190 2 46.4 17.6 1.6 -10.0093
191 1 48 16 0 -11.91
192 3 49.6 17.6 1.6 -11.4638
193 2 0 19.2 0 -9.90249
194 2 1.6 20.8 1.6 -9.92876
195 2 3.2 19.2 0 -9.98956
196 2 4.8 20.8 1.6 -9.87803
197 3 6.4 19.2 0 -11.3857
198 1 8 20.8 1.6 -11.7608
199 3 9.6 19.2 0 -11.4947
200 1 11.2 20.8 1.6 -11.8649
201 2 12.8 19.2 0 -10.0247
202 1 14.4 20.8 1.6 -11.9162
203 2 16 19.2 0 -10.0418
204 2 17.6 20.8 1.6 -9.89405
205 3 19.2 19.2 0 -11.5004
206 1 20.8 20.8 1.6 -11.8752
207 3 22.4 19.2 0 -11.3688
208 1 24 20.8 1.6 -11.8615
209 3 25.6 19.2 0 -11.5256
210 2 27.2 20.8 1.6 -9.91784
211 1 28.8 19.2 0 -11.8834
212 2 30.4 20.8 1.6 -9.87524
213 1 32 19.2 0 -11.8198
214 2 33.6 20.8 1.6 -9.96252
215 2 35.2 19.2 0 -9.96695
216 2 36.8 20.8 1.6 -9.98424
217 2 38.4 19.2 0 -9.91496
218 3 40 20.8 1.6 -11.4961
219 1 41.6 19.2 0 -11.9152
220 3 43.2 20.8 1.6 -11.4059
221 3 44.8 19.2 0 -11.3972
222 2 46.4 20.8 1.6 -9.98642
223 1 48 19.2 0 -11.8316
224 3 49.6 20.8 1.6 -11.5203
225 2 0 22.4 0 -9.94484
226 1 1.6 24 1.6 -11.767
227 2 3.2 22.4 0 -9.82784
228 2 4.8 24 1.6 -9.89831
229 1 6.4 22.4 0 -11.7667
230 2 8 24 1.6 -9.87294
231 3 9.6 22.4 0 -11.3978
232 1 11.2 24 1.6 -11.8832
233 3 12.8 22.4 0 -11.5255
234 3 14.4 24 1.6 -11.5448
235 3 16 22.4 0 -11.5623
236 3 17.6 24 1.6 -11.5445
237 3 19.2 22.4 0 -11.4396
238 3 20.8 24 1.6 -11.4961
239 3 22.4 22.4 0 -11.5075
240 2 24 24 1.6 -9.95027
241 3 25.6 22.4 0 -11.5444
242 1 27.2 24 1.6 -11.805
243 3 28.8 22.4 0 -11.391
244 1 30.4 24 1.6 -11.8405
245 2 32 22.4 0 -9.93488
246 2 33.6 24 1.6 -9.90898
247 2 35.2 22.4 0 -9.91864
248 2 36.8 24 1.6 -9.96066
249 3 38.4 22.4 0 -11.4705
250 3 40 24 1.6 -11.4674
251 1 41.6 22.4 0 -11.9181
252 2 43.2 24 1.6 -9.89475
253 3 44.8 22.4 0 -11.4045
254 3 46.4 24 1.6 -11.4647
255 2 48 22.4 0 -9.95471
256 3 49.6 24 1.6 -11.4529
257 2 0 25.6 0 -9.8656
259 1 3.2 25.6 0 -11.7484
261 2 6.4 25.6 0 -9.94373
263 3 9.6 25.6 0 -11.4993
265 3 12.8 25.6 0 -11.4944
267 3 16 25.6 0 -11.5845
269 3 19.2 25.6 0 -11.4865
271 3 22.4 25.6 0 -11.487
273 2 25.6 25.6 0 -9.97965
275 3 28.8 25.6 0 -11.4218
277 2 32 25.6 0 -9.97091
279 1 35.2 25.6 0 -11.8544
281 1 38.4 25.6 0 -11.9502
283 2 41.6 25.6 0 -9.8377
285 1 44.8 25.6 0 -11.8333
287 1 48 25.6 0 -11.867
258 2 1.6 27.2 1.6 -9.94072
289 1 0 28.8 0 -11.8
260 3 4.8 27.2 1.6 -11.5496
291 2 3.2 28.8 0 -9.96307
262 3 8 27.2 1.6 -11.4609
293 2 6.4 28.8 0 -9.95796
264 1 11.2 27.2 1.6 -11.9172
295 3 9.6 28.8 0 -11.35
266 2 14.4 27.2 1.6 -9.98646
297 2 12.8 28.8 0 -9.98271
268 1 17.6 27.2 1.6 -11.8866
299 2 16 28.8 0 -9.90518
270 3 20.8 27.2 1.6 -11.4518
301 1 19.2 28.8 0 -11.7524
272 3 24 27.2 1.6 -11.4486
303 1 22.4 28.8 0 -11.8549
305 2 25.6 28.8 0 -9.94216
274 2 27.2 27.2 1.6 -9.92057
307 3 28.8 28.8 0 -11.5219
276 2 30.4 27.2 1.6 -9.9897
309 3 32 28.8 0 -11.549
278 3 33.6 27.2 1.6 -11.4557
311 3 35.2 28.8 0 -11.5545
280 3 36.8 27.2 1.6 -11.5121
313 3 38.4 28.8 0 -11.5444
282 3 40 27.2 1.6 -11.4837
315 2 41.6 28.8 0 -9.94095
284 2 43.2 27.2 1.6 -9.86834
317 1 44.8 28.8 0 -11.7222
286 2 46.4 27.2 1.6 -9.89424
319 1 48 28.8 0 -11.8045
288 2 49.6 27.2 1.6 -9.91539
290 3 1.6 30.4 1.6 -11.3918
321 1 0 32 0 -11.8544
292 2 4.8 30.4 1.6 -9.97404
323 2 3.2 32 0 -9.93482
294 1 8 30.4 1.6 -11.8182
325 2 6.4 32 0 -9.91691
296 1 11.2 30.4 1.6 -11.8804
327 2 9.6 32 0 -9.90439
298 3 14.4 30.4 1.6 -11.4701
329 3 12.8 32 0 -11.4878
300 2 17.6 30.4 1.6 -9.8643
331 2 16 32 0 -9.99479
302 1 20.8 30.4 1.6 -11.8006
333 2 19.2 32 0 -9.90781
304 2 24 30.4 1.6 -9.91807
335 2 22.4 32 0 -9.96945
337 3 25.6 32 0 -11.5042
306 1 27.2 30.4 1.6 -11.8395
339 3 28.8 32 0 -11.4388
308 2 30.4 30.4 1.6 -9.92179
341 3 32 32 0 -11.4512
310 2 33.6 30.4 1.6 -10.0313
343 3 35.2 32 0 -11.597
312 2 36.8 30.4 1.6 -9.94399
345 3 38.4 32 0 -11.558
314 1 40 30.4 1.6 -11.921
347 3 41.6 32 0 -11.5148
316 2 43.2 30.4 1.6 -9.8632
349 3 44.8 32 0 -11.4164
318 3 46.4 30.4 1.6 -11.4601
351 2 48 32 0 -9.92142
320 2 49.6 30.4 1.6 -9.90922
322 2 1.6 33.6 1.6 -9.99795
353 3 0 35.2 0 -11.4307
324 3 4.8 33.6 1.6 -11.453
355 1 3.2 35.2 0 -11.8441
326 1 8 33.6 1.6 -11.8378
357 3 6.4 35.2 0 -11.4615
328 2 11.2 33.6 1.6 -9.86581
359 2 9.6 35.2 0 -9.88982
330 3 14.4 33.6 1.6 -11.4826
361 1 12.8 35.2 0 -11.8556
332 2 17.6 33.6 1.6 -9.97316
363 1 16 35.2 0 -11.8767
334 2 20.8 33.6 1.6 -9.95614
365 2 19.2 35.2 0 -9.96976
336 3 24 33.6 1.6 -11.489
367 2 22.4 35.2 0 -9.95728
369 2 25.6 35.2 0 -10.0341
338 1 27.2 33.6 1.6 -11.8585
371 2 28.8 35.2 0 -9.87539
340 3 30.4 33.6 1.6 -11.3059
373 3 32 35.2 0 -11.4054
342 2 33.6 33.6 1.6 -9.93063
375 3 35.2 35.2 0 -11.4904
344 1 36.8 33.6 1.6 -11.8911
377 2 38.4 35.2 0 -9.99406
346 2 40 33.6 1.6 -9.94454
379 2 41.6 35.2 0 -9.99324
348 2 43.2 33.6 1.6 -9.97162
381 1 44.8 35.2 0 -11.8352
350 3 46.4 33.6 1.6 -11.5015
383 3 48 35.2 0 -11.4539
352 3 49.6 33.6 1.6 -11.5347
354 3 1.6 36.8 1.6 -11.4022
385 3 0 38.4 0 -11.5076
356 3 4.8 36.8 1.6 -11.5478
387 1 3.2 38.4 0 -11.8266
358 2 8 36.8 1.6 -9.96553
389 2 6.4 38.4 0 -9.98287
360 2 11.2 36.8 1.6 -9.87282
391 2 9.6 38.4 0 -9.99198
362 2 14.4 36.8 1.6 -9.97449
393 3 12.8 38.4 0 -11.3873
364 2 17.6 36.8 1.6 -10.0109
395 3 16 38.4 0 -11.5301
366 2 20.8 36.8 1.6 -9.94372
397 3 19.2 38.4 0 -11.5625
368 2 24 36.8 1.6 -9.96121
399 2 22.4 38.4 0 -9.94686
401 3 25.6 38.4 0 -11.5502
370 2 27.2 36.8 1.6 -9.87889
403 2 28.8 38.4 0 -9.87981
372 1 30.4 36.8 1.6 -11.6504
405 2 32 38.4 0 -9.90214
374 2 33.6 36.8 1.6 -9.91854
407 2 35.2 38.4 0 -9.98291
376 3 36.8 36.8 1.6 -11.4228
409 3 38.4 38.4 0 -11.4835
378 3 40 36.8 1.6 -11.5413
411 3 41.6 38.4 0 -11.5559
380 3 43.2 36.8 1.6 -11.4593
413 1 44.8 38.4 0 -11.88
382 2 46.4 36.8 1.6 -9.96794
415 2 48 38.4 0 -9.90846
384 2 49.6 36.8 1.6 -10.016
386 3 1.6 40 1.6 -11.5014
417 3 0 41.6 0 -11.5405
388 3 4.8 40 1.6 -11.4171
419 3 3.2 41.6 0 -11.4788
390 2 8 40 1.6 -9.88784
421 3 6.4 41.6 0 -11.3703
392 2 11.2 40 1.6 -10.0525
423 3 9.6 41.6 0 -11.456
394 3 14.4 40 1.6 -11.5371
425 1 12.8 41.6 0 -11.9191
396 3 17.6 40 1.6 -11.5868
427 2 16 41.6 0 -9.97582
398 2 20.8 40 1.6 -10.0107
429 2 19.2 41.6 0 -10.0103
400 3 24 40 1.6 -11.5402
431 2 22.4 41.6 0 -9.98257
433 3 25.6 41.6 0 -11.5284
402 3 27.2 40 1.6 -11.528
435 2 28.8 41.6 0 -9.9531
404 2 30.4 40 1.6 -9.8634
437 1 32 41.6 0 -11.8893
406 2 33.6 40 1.6 -9.96252
439 2 35.2 41.6 0 -9.94107
408 2 36.8 40 1.6 -9.94211
441 2 38.4 41.6 0 -10.0007
410 1 40 40 1.6 -11.8498
443 2 41.6 41.6 0 -9.96082
412 3 43.2 40 1.6 -11.4537
445 1 44.8 41.6 0 -11.872
414 3 46.4 40 1.6 -11.321
447 1 48 41.6 0 -11.8531
416 2 49.6 40 1.6 -9.96355
418 1 1.6 43.2 1.6 -11.9148
449 3 0 44.8 0 -11.4037
420 2 4.8 43.2 1.6 -9.99938
451 2 3.2 44.8 0 -9.95271
422 1 8 43.2 1.6 -11.8739
453 3 6.4 44.8 0 -11.5232
424 3 11.2 43.2 1.6 -11.4722
455 3 9.6 44.8 0 -11.3865
426 3 14.4 43.2 1.6 -11.4636
457 1 12.8 44.8 0 -11.8718
428 2 17.6 43.2 1.6 -9.99603
459 2 16 44.8 0 -9.8979
430 3 20.8 43.2 1.6 -11.4994
461 3 19.2 44.8 0 -11.5022
432 2 24 43.2 1.6 -9.94949
463 1 22.4 44.8 0 -11.9245
465 3 25.6 44.8 0 -11.3988
434 1 27.2 43.2 1.6 -11.8292
467 2 28.8 44.8 0 -9.94638
436 2 30.4 43.2 1.6 -9.94252
469 2 32 44.8 0 -9.90972
438 3 33.6 43.2 1.6 -11.4732
471 2 35.2 44.8 0 -9.91982
440 3 36.8 43.2 1.6 -11.5041
473 3 38.4 44.8 0 -11.3892
442 2 40 43.2 1.6 -9.91476
475 3 41.6 44.8 0 -11.3797
444 3 43.2 43.2 1.6 -11.4267
477 3 44.8 44.8 0 -11.504
446 3 46.4 43.2 1.6 -11.4478
479 2 48 44.8 0 -10.0121
448 2 49.6 43.2 1.6 -9.89921
450 1 1.6 46.4 1.6 -11.7453
481 2 0 48 0 -9.86696
452 3 4.8 46.4 1.6 -11.4447
483 1 3.2 48 0 -11.8676
454 1 8 46.4 1.6 -11.8355
485 3 6.4 48 0 -11.4667
456 3 11.2 46.4 1.6 -11.3642
487 1 9.6 48 0 -11.7964
458 3 14.4 46.4 1.6 -11.554
489 1 12.8 48 0 -11.8209
460 3 17.6 46.4 1.6 -11.5292
491 1 16 48 0 -11.8612
462 2 20.8 46.4 1.6 -10.0459
493 2 19.2 48 0 -9.96997
464 2 24 46.4 1.6 -9.98336
495 2 22.4 48 0 -9.99213
497 3 25.6 48 0 -11.5033
466 2 27.2 46.4 1.6 -9.87492
499 3 28.8 48 0 -11.4217
468 2 30.4 46.4 1.6 -10.0201
501 3 32 48 0 -11.4904
470 3 33.6 46.4 1.6 -11.4602
503 2 35.2 48 0 -9.91185
472 2 36.8 46.4 1.6 -9.95565
505 2 38.4 48 0 -9.91036
474 1 40 46.4 1.6 -11.7669
507 2 41.6 48 0 -9.89172
476 1 43.2 46.4 1.6 -11.7652
509 2 44.8 48 0 -9.93779
478 2 46.4 46.4 1.6 -9.9853
511 2 48 48 0 -9.96781
480 2 49.6 46.4 1.6 -9.94703
482 2 1.6 49.6 1.6 -9.81398
484 3 4.8 49.6 1.6 -11.5703
486 3 8 49.6 1.6 -11.419
488 2 11.2 49.6 1.6 -9.93387
490 3 14.4 49.6 1.6 -11.4061
492 3 17.6 49.6 1.6 -11.5111
494 2 20.8 49.6 1.6 -9.95807
496 3 24 49.6 1.6 -11.4843
498 2 27.2 49.6 1.6 -9.96099
500 3 30.4 49.6 1.6 -11.4883
502 2 33.6 49.6 1.6 -10.0238
504 2 36.8 49.6 1.6 -9.87217
506 2 40 49.6 1.6 -9.96512
508 2 43.2 49.6 1.6 -9.89097
510 2 46.4 49.6 1.6 -9.89889
512 2 49.6 49.6 1.6 -9.96852
513 1 0 0 3.2 -11.7814
514 2 1.6 1.6 4.8 -9.91162
515 2 3.2 0 3.2 -9.90784
516 2 4.8 1.6 4.8 -9.94861
517 3 6.4 0 3.2 -11.4828
518 1 8 1.6 4.8 -11.8608
519 3 9.6 0 3.2 -11.5236
520 2 11.2 1.6 4.8 -9.84878
521 3 12.8 0 3.2 -11.4244
522 1 14.4 1.6 4.8 -11.8648
523 3 16 0 3.2 -11.4946
524 1 17.6 1.6 4.8 -11.9049
525 3 19.2 0 3.2 -11.5146
526 2 20.8 1.6 4.8 -9.83449
527 2 22.4 0 3.2 -9.98775
528 1 24 1.6 4.8 -11.8047
529 3 25.6 0 3.2 -11.3898
530 1 27.2 1.6 4.8 -11.8047
531 2 28.8 0 3.2 -9.94205
532 2 30.4 1.6 4.8 -9.90122
533 1 32 0 3.2 -11.9082
534 3 33.6 1.6 4.8 -11.5107
535 2 35.2 0 3.2 -9.93977
536 2 36.8 1.6 4.8 -9.90157
537 2 38.4 0 3.2 -9.95493
538 1 40 1.6 4.8 -11.8282
539 2 41.6 0 3.2 -9.93251
540 2 43.2 1.6 4.8 -9.9051
541 2 44.8 0 3.2 -9.94934
542 2 46.4 1.6 4.8 -9.96341
543 2 48 0 3.2 -9.9491
544 1 49.6 1.6 4.8 -11.8743
545 3 0 3.2 3.2 -11.478
546 3 1.6 4.8 4.8 -11.4998
547 2 3.2 3.2 3.2 -9.94787
548 3 4.8 4.8 4.8 -11.3542
549 1 6.4 3.2 3.2 -11.7684
550 2 8 4.8 4.8 -9.91499
551 3 9.6 3.2 3.2 -11.3536
552 2 11.2 4.8 4.8 -9.95328
553 2 12.8 3.2 3.2 -9.90815
554 2 14.4 4.8 4.8 -9.89165
555 2 16 3.2 3.2 -9.93276
556 1 17.6 4.8 4.8 -11.9038
557 3 19.2 3.2 3.2 -11.3808
558 1 20.8 4.8 4.8 -11.8484
559 2 22.4 3.2 3.2 -9.93462
560 2 24 4.8 4.8 -9.88044
561 2 25.6 3.2 3.2 -9.83349
562 2 27.2 4.8 4.8 -9.7269
563 2 28.8 3.2 3.2 -9.802
564 2 30.4 4.8 4.8 -9.89226
565 1 32 3.2 3.2 -11.9114
566 3 33.6 4.8 4.8 -11.5001
567 3 35.2 3.2 3.2 -11.4539
568 2 36.8 4.8 4.8 -9.93928
569 2 38.4 3.2 3.2 -9.88989
570 1 40 4.8 4.8 -11.7546
571 2 41.6 3.2 3.2 -9.93649
572 2 43.2 4.8 4.8 -9.95891
573 2 44.8 3.2 3.2 -9.9696
574 2 46.4 4.8 4.8 -9.93949
575 2 48 3.2 3.2 -9.99331
576 2 49.6 4.8 4.8 -9.89728
577 3 0 6.4 3.2 -11.494
578 3 1.6 8 4.8 -11.4164
579 3 3.2 6.4 3.2 -11.4204
580 3 4.8 8 4.8 -11.3905
581 1 6.4 6.4 3.2 -11.8531
582 3 8 8 4.8 -11.5038
583 2 9.6 6.4 3.2 -9.97545
584 2 11.2 8 4.8 -9.9086
585 2 12.8 6.4 3.2 -9.92583
586 2 14.4 8 4.8 -9.99855
587 3 16 6.4 3.2 -11.5394
588 2 17.6 8 4.8 -9.91946
589 3 19.2 6.4 3.2 -11.4324
590 1 20.8 8 4.8 -11.8198
591 2 22.4 6.4 3.2 -9.87295
592 2 24 8 4.8 -9.9438
593 1 25.6 6.4 3.2 -11.7713
594 3 27.2 8 4.8 -11.372
595 1 28.8 6.4 3.2 -11.7745
596 3 30.4 8 4.8 -11.3728
597 1 32 6.4 3.2 -11.8997
598 3 33.6 8 4.8 -11.4291
599 1 35.2 6.4 3.2 -11.8654
600 3 36.8 8 4.8 -11.3603
601 1 38.4 6.4 3.2 -11.6972
602 2 40 8 4.8 -9.87229
603 2 41.6 6.4 3.2 -9.89319
604 2 43.2 8 4.8 -9.87497
605 2 44.8 6.4 3.2 -9.92996
606 1 46.4 8 4.8 -11.8755
607 3 48 6.4 3.2 -11.3402
608 1 49.6 8 4.8 -11.8738
609 2 0 9.6 3.2 -9.9133
610 2 1.6 11.2 4.8 -9.94034
611 1 3.2 9.6 3.2 -11.8859
612 3 4.8 11.2 4.8 -11.3692
613 2 6.4 9.6 3.2 -9.85018
614 2 8 11.2 4.8 -9.91909
615 3 9.6 9.6 3.2 -11.4329
616 1 11.2 11.2 4.8 -11.8896
617 3 12.8 9.6 3.2 -11.4688
618 2 14.4 11.2 4.8 -9.92042
619 3 16 9.6 3.2 -11.5101
620 3 17.6 11.2 4.8 -11.4676
621 3 19.2 9.6 3.2 -11.4961
622 3 20.8 11.2 4.8 -11.4495
623 3 22.4 9.6 3.2 -11.4696
624 3 24 11.2 4.8 -11.433
625 3 25.6 9.6 3.2 -11.5273
626 3 27.2 11.2 4.8 -11.4691
627 3 28.8 9.6 3.2 -11.4496
628 1 30.4 11.2 4.8 -11.8959
629 2 32 9.6 3.2 -9.98642
630 2 33.6 11.2 4.8 -9.96801
631 1 35.2 9.6 3.2 -11.8665
632 2 36.8 11.2 4.8 -9.91477
633 1 38.4 9.6 3.2 -11.7951
634 3 40 11.2 4.8 -11.3961
635 3 41.6 9.6 3.2 -11.3604
636 2 43.2 11.2 4.8 -9.86743
637 2 44.8 9.6 3.2 -9.91642
638 2 46.4 11.2 4.8 -9.91228
639 3 48 9.6 3.2 -11.4718
640 3 49.6 11.2 4.8 -11.4754
641 1 0 12.8 3.2 -11.8959
642 2 1.6 14.4 4.8 -9.97112
643 2 3.2 12.8 3.2 -9.85362
644 2 4.8 14.4 4.8 -9.9581
645 1 6.4 12.8 3.2 -11.8558
646 2 8 14.4 4.8 -9.87928
647 2 9.6 12.8 3.2 -9.87059
648 1 11.2 14.4 4.8 -11.7428
649 3 12.8 12.8 3.2 -11.2817
650 2 14.4 14.4 4.8 -9.8373
651 1 16 12.8 3.2 -11.82
652 2 17.6 14.4 4.8 -9.96143
653 2 19.2 12.8 3.2 -9.99734
654 2 20.8 14.4 4.8 -9.94783
655 3 22.4 12.8 3.2 -11.493
656 2 24 14.4 4.8 -9.92367
657 3 25.6 12.8 3.2 -11.4907
658 2 27.2 14.4 4.8 -10.0014
659 3 28.8 12.8 3.2 -11.501
660 1 30.4 14.4 4.8 -11.9077
661 3 32 12.8 3.2 -11.3747
662 2 33.6 14.4 4.8 -9.83581
663 2 35.2 12.8 3.2 -9.97054
664 1 36.8 14.4 4.8 -11.876
665 2 38.4 12.8 3.2 -9.88795
666 1 40 14.4 4.8 -11.8169
667 2 41.6 12.8 3.2 -9.85629
668 2 43.2 14.4 4.8 -9.85879
669 1 44.8 12.8 3.2 -11.7391
670 2 46.4 14.4 4.8 -9.98614
671 3 48 12.8 3.2 -11.5214
672 3 49.6 14.4 4.8 -11.5758
673 3 0 16 3.2 -11.4592
674 1 1.6 17.6 4.8 -11.7709
675 2 3.2 16 3.2 -9.93026
676 1 4.8 17.6 4.8 -11.8729
677 2 6.4 16 3.2 -9.90713
678 3 8 17.6 4.8 -11.4493
679 1 9.6 16 3.2 -11.8265
680 2 11.2 17.6 4.8 -9.93105
681 2 12.8 16 3.2 -9.93205
682 1 14.4 17.6 4.8 -11.8493
683 3 16 16 3.2 -11.4566
684 2 17.6 17.6 4.8 -9.90939
685 3 19.2 16 3.2 -11.5611
686 3 20.8 17.6 4.8 -11.5052
687 3 22.4 16 3.2 -11.3503
688 2 24 17.6 4.8 -9.89206
689 2 25.6 16 3.2 -10.0359
690 3 27.2 17.6 4.8 -11.53
691 3 28.8 16 3.2 -11.529
692 3 30.4 17.6 4.8 -11.4469
693 3 32 16 3.2 -11.4696
694 1 33.6 17.6 4.8 -11.9271
695 3 35.2 16 3.2 -11.4738
696 2 36.8 17.6 4.8 -9.89059
697 2 38.4 16 3.2 -9.9125
698 1 40 17.6 4.8 -11.8117
699 2 41.6 16 3.2 -9.9327
700 2 43.2 17.6 4.8 -9.97814
701 2 44.8 16 3.2 -9.93917
702 3 46.4 17.6 4.8 -11.3699
703 2 48 16 3.2 -9.9987
704 2 49.6 17.6 4.8 -9.93081
705 2 0 19.2 3.2 -9.93857
706 1 1.6 20.8 4.8 -11.7715
707 3 3.2 19.2 3.2 -11.3328
708 2 4.8 20.8 4.8 -9.9444
709 2 6.4 19.2 3.2 -9.94558
710 3 8 20.8 4.8 -11.4455
711 2 9.6 19.2 3.2 -9.95068
712 2 11.2 20.8 4.8 -9.90256
713 3 12.8 19.2 3.2 -11.3751
714 1 14.4 20.8 4.8 -11.8479
715 3 16 19.2 3.2 -11.4041
716 1 17.6 20.8 4.8 -11.8441
717 2 19.2 19.2 3.2 -10.0225
718 3 20.8 20.8 4.8 -11.3686
719 2 22.4 19.2 3.2 -9.87505
720 1 24 20.8 4.8 -11.7556
721 3 25.6 19.2 3.2 -11.4236
722 1 27.2 20.8 4.8 -11.9289
723 3 28.8 19.2 3.2 -11.4757
724 1 30.4 20.8 4.8 -11.825
725 2 32 19.2 3.2 -9.94322
726 2 33.6 20.8 4.8 -9.88223
727 2 35.2 19.2 3.2 -9.99192
728 1 36.8 20.8 4.8 -11.8773
729 3 38.4 19.2 3.2 -11.4563
730 2 40 20.8 4.8 -9.89401
731 3 41.6 19.2 3.2 -11.3511
732 2 43.2 20.8 4.8 -9.88453
733 1 44.8 19.2 3.2 -11.8689
734 2 46.4 20.8 4.8 -9.94019
735 2 48 19.2 3.2 -9.93482
736 2 49.6 20.8 4.8 -9.89237
737 3 0 22.4 3.2 -11.3949
738 1 1.6 24 4.8 -11.8409
739 2 3.2 22.4 3.2 -9.93301
740 3 4.8 24 4.8 -11.4248
741 1 6.4 22.4 3.2 -11.7714
742 2 8 24 4.8 -10.0154
743 2 9.6 22.4 3.2 -9.9214
744 2 11.2 24 4.8 -9.96993
745 3 12.8 22.4 3.2 -11.4574
746 3 14.4 24 4.8 -11.5691
747 3 16 22.4 3.2 -11.5356
748 3 17.6 24 4.8 -11.4734
749 2 19.2 22.4 3.2 -10.0124
750 3 20.8 24 4.8 -11.6343
751 2 22.4 22.4 3.2 -9.927
752 3 24 24 4.8 -11.4705
753 3 25.6 22.4 3.2 -11.378
754 3 27.2 24 4.8 -11.4799
755 2 28.8 22.4 3.2 -9.96537
756 3 30.4 24 4.8 -11.382
757 2 32 22.4 3.2 -9.89618
758 3 33.6 24 4.8 -11.4467
759 2 35.2 22.4 3.2 -9.9348
760 2 36.8 24 4.8 -9.99701
761 2 38.4 22.4 3.2 -10.0077
762 3 40 24 4.8 -11.4618
763 1 41.6 22.4 3.2 -11.8207
764 2 43.2 24 4.8 -9.92377
765 1 44.8 22.4 3.2 -11.8495
766 3 46.4 24 4.8 -11.5059
767 3 48 22.4 3.2 -11.5028
768 1 49.6 24 4.8 -11.9103
769 3 0 25.6 3.2 -11.4003
771 3 3.2 25.6 3.2 -11.4739
773 3 6.4 25.6 3.2 -11.5203
775 3 9.6 25.6 3.2 -11.5352
777 2 12.8 25.6 3.2 -9.99705
779 3 16 25.6 3.2 -11.6105
781 3 19.2 25.6 3.2 -11.5562
783 1 22.4 25.6 3.2 -11.9574
785 1 25.6 25.6 3.2 -11.8152
787 2 28.8 25.6 3.2 -9.91957
789 2 32 25.6 3.2 -9.90411
791 1 35.2 25.6 3.2 -11.8752
793 3 38.4 25.6 3.2 -11.4318
795 1 41.6 25.6 3.2 -11.855
797 2 44.8 25.6 3.2 -9.84567
799 3 48 25.6 3.2 -11.5547
770 2 1.6 27.2 4.8 -9.97431
801 1 0 28.8 3.2 -11.8433
772 3 4.8 27.2 4.8 -11.4749
803 3 3.2 28.8 3.2 -11.4849
774 3 8 27.2 4.8 -11.5572
805 3 6.4 28.8 3.2 -11.5364
776 2 11.2 27.2 4.8 -9.97189
807 3 9.6 28.8 3.2 -11.4662
778 3 14.4 27.2 4.8 -11.486
809 3 12.8 28.8 3.2 -11.4586
780 1 17.6 27.2 4.8 -11.9487
811 3 16 28.8 3.2 -11.4882
782 3 20.8 27.2 4.8 -11.5588
813 3 19.2 28.8 3.2 -11.4557
784 2 24 27.2 4.8 -9.98844
815 3 22.4 28.8 3.2 -11.3887
817 2 25.6 28.8 3.2 -9.87734
786 2 27.2 27.2 4.8 -9.96078
819 2 28.8 28.8 3.2 -9.95524
788 3 30.4 27.2 4.8 -11.4755
821 2 32 28.8 3.2 -9.97329
790 2 33.6 27.2 4.8 -10.0338
823 2 35.2 28.8 3.2 -10.0265
792 2 36.8 27.2 4.8 -10.0056
825 3 38.4 28.8 3.2 -11.5191
794 2 40 27.2 4.8 -10.031
827 2 41.6 28.8 3.2 -9.92475
796 3 43.2 27.2 4.8 -11.42
829 1 44.8 28.8 3.2 -11.8762
798 3 46.4 27.2 4.8 -11.576
831 3 48 28.8 3.2 -11.4421
800 2 49.6 27.2 4.8 -9.92297
802 2 1.6 30.4 4.8 -9.92748
833 2 0 32 3.2 -9.89643
804 1 4.8 30.4 4.8 -11.8653
835 2 3.2 32 3.2 -9.98338
806 1 8 30.4 4.8 -11.8656
837 3 6.4 32 3.2 -11.4786
808 1 11.2 30.4 4.8 -11.8792
839 3 9.6 32 3.2 -11.3201
810 1 14.4 30.4 4.8 -11.9397
841 3 12.8 32 3.2 -11.5
812 1 17.6 30.4 4.8 -11.8992
843 3 16 32 3.2 -11.4995
814 3 20.8 30.4 4.8 -11.4354
845 3 19.2 32 3.2 -11.4563
816 1 24 30.4 4.8 -11.8714
847 2 22.4 32 3.2 -9.99433
849 3 25.6 32 3.2 -11.4148
818 1 27.2 30.4 4.8 -11.8232
851 2 28.8 32 3.2 -9.89661
820 2 30.4 30.4 4.8 -9.97316
853 1 32 32 3.2 -11.8745
822 3 33.6 30.4 4.8 -11.4738
855 3 35.2 32 3.2 -11.4099
824 2 36.8 30.4 4.8 -9.97669
857 2 38.4 32 3.2 -9.93857
826 2 40 30.4 4.8 -9.94696
859 2 41.6 32 3.2 -9.96254
828 2 43.2 30.4 4.8 -9.96806
861 2 44.8 32 3.2 -9.97461
830 3 46.4 30.4 4.8 -11.5177
863 3 48 32 3.2 -11.5751
832 2 49.6 30.4 4.8 -9.97989
834 3 1.6 33.6 4.8 -11.4145
865 2 0 35.2 3.2 -9.93377
836 3 4.8 33.6 4.8 -11.5783
867 1 3.2 35.2 3.2 -11.9305
838 3 8 33.6 4.8 -11.4913
869 3 6.4 35.2 3.2 -11.5353
840 3 11.2 33.6 4.8 -11.3205
871 1 9.6 35.2 3.2 -11.7911
842 2 14.4 33.6 4.8 -9.94099
873 1 12.8 35.2 3.2 -11.8158
844 1 17.6 33.6 4.8 -11.8725
875 3 16 35.2 3.2 -11.3281
846 2 20.8 33.6 4.8 -9.98681
877 2 19.2 35.2 3.2 -9.9933
848 3 24 33.6 4.8 -11.5277
879 1 22.4 35.2 3.2 -11.8514
881 3 25.6 35.2 3.2 -11.4809
850 3 27.2 33.6 4.8 -11.4927
883 1 28.8 35.2 3.2 -11.6823
852 3 30.4 33.6 4.8 -11.3865
885 2 32 35.2 3.2 -9.82477
854 2 33.6 33.6 4.8 -9.92845
887 2 35.2 35.2 3.2 -9.95772
856 1 36.8 33.6 4.8 -11.8744
889 2 38.4 35.2 3.2 -9.9475
858 2 40 33.6 4.8 -9.91619
891 2 41.6 35.2 3.2 -9.92002
860 2 43.2 33.6 4.8 -9.93758
893 1 44.8 35.2 3.2 -11.8549
862 2 46.4 33.6 4.8 -9.98131
895 2 48 35.2 3.2 -10.0015
864 2 49.6 33.6 4.8 -10.0081
866 2 1.6 36.8 4.8 -9.95589
897 1 0 38.4 3.2 -11.8879
868 3 4.8 36.8 4.8 -11.5272
899 2 3.2 38.4 3.2 -9.91792
870 3 8 36.8 4.8 -11.4941
901 3 6.4 38.4 3.2 -11.463
872 2 11.2 36.8 4.8 -9.88648
903 2 9.6 38.4 3.2 -9.96924
874 2 14.4 36.8 4.8 -9.91616
905 2 12.8 38.4 3.2 -9.97879
876 3 17.6 36.8 4.8 -11.4692
907 2 16 38.4 3.2 -10.0084
878 2 20.8 36.8 4.8 -9.99002
909 3 19.2 38.4 3.2 -11.5296
880 3 24 36.8 4.8 -11.4397
911 1 22.4 38.4 3.2 -11.8841
913 3 25.6 38.4 3.2 -11.5337
882 2 27.2 36.8 4.8 -9.98491
915 1 28.8 38.4 3.2 -11.6442
884 1 30.4 36.8 4.8 -11.6229
917 2 32 38.4 3.2 -9.746
886 1 33.6 36.8 4.8 -11.7448
919 2 35.2 38.4 3.2 -9.90488
888 2 36.8 36.8 4.8 -9.92524
921 2 38.4 38.4 3.2 -10.0006
890 2 40 36.8 4.8 -9.97682
923 3 41.6 38.4 3.2 -11.4492
892 2 43.2 36.8 4.8 -9.99221
925 3 44.8 38.4 3.2 -11.4324
894 2 46.4 36.8 4.8 -9.94548
927 2 48 38.4 3.2 -9.91297
896 2 49.6 36.8 4.8 -9.96676
898 3 1.6 40 4.8 -11.4142
929 2 0 41.6 3.2 -9.92405
900 1 4.8 40 4.8 -11.844
931 3 3.2 41.6 3.2 -11.4858
902 1 8 40 4.8 -11.8701
933 1 6.4 41.6 3.2 -11.7934
904 3 11.2 40 4.8 -11.4621
935 3 9.6 41.6 3.2 -11.4557
906 2 14.4 40 4.8 -9.9916
937 3 12.8 41.6 3.2 -11.5021
908 3 17.6 40 4.8 -11.5532
939 2 16 41.6 3.2 -10.007
910 3 20.8 40 4.8 -11.4777
941 2 19.2 41.6 3.2 -10.047
912 2 24 40 4.8 -9.98191
943 3 22.4 41.6 3.2 -11.4868
945 3 25.6 41.6 3.2 -11.5144
914 3 27.2 40 4.8 -11.457
947 2 28.8 41.6 3.2 -9.91469
916 1 30.4 40 4.8 -11.784
949 2 32 41.6 3.2 -9.91723
918 2 33.6 40 4.8 -9.82974
951 2 35.2 41.6 3.2 -9.91933
920 2 36.8 40 4.8 -9.87338
953 2 38.4 41.6 3.2 -9.91957
922 2 40 40 4.8 -9.95033
955 1 41.6 41.6 3.2 -11.8308
924 3 43.2 40 4.8 -11.4583
957 1 44.8 41.6 3.2 -11.8899
926 2 46.4 40 4.8 -9.91679
959 1 48 41.6 3.2 -11.7862
928 2 49.6 40 4.8 -9.89903
930 3 1.6 43.2 4.8 -11.3925
961 2 0 44.8 3.2 -9.91999
932 3 4.8 43.2 4.8 -11.5378
963 3 3.2 44.8 3.2 -11.4133
934 3 8 43.2 4.8 -11.3371
965 3 6.4 44.8 3.2 -11.4556
936 2 11.2 43.2 4.8 -9.93713
967 2 9.6 44.8 3.2 -9.96651
938 1 14.4 43.2 4.8 -11.8963
969 2 12.8 44.8 3.2 -10.0068
940 1 17.6 43.2 4.8 -11.8512
971 3 16 44.8 3.2 -11.4584
942 2 20.8 43.2 4.8 -10.0058
973 3 19.2 44.8 3.2 -11.5558
944 1 24 43.2 4.8 -11.893
975 3 22.4 44.8 3.2 -11.4868
977 2 25.6 44.8 3.2 -9.87931
946 1 27.2 43.2 4.8 -11.8182
979 2 28.8 44.8 3.2 -9.88196
948 2 30.4 43.2 4.8 -9.88355
981 2 32 44.8 3.2 -9.97462
950 3 33.6 43.2 4.8 -11.3998
983 1 35.2 44.8 3.2 -11.9341
952 3 36.8 43.2 4.8 -11.5085
985 2 38.4 44.8 3.2 -9.96677
954 3 40 43.2 4.8 -11.535
987 1 41.6 44.8 3.2 -11.8154
956 3 43.2 43.2 4.8 -11.5326
989 3 44.8 44.8 3.2 -11.4601
958 3 46.4 43.2 4.8 -11.481
991 3 48 44.8 3.2 -11.4838
960 1 49.6 43.2 4.8 -11.7925
962 2 1.6 46.4 4.8 -9.81733
993 2 0 48 3.2 -9.81984
964 3 4.8 46.4 4.8 -11.4086
995 1 3.2 48 3.2 -11.7053
966 1 8 46.4 4.8 -11.8343
997 2 6.4 48 3.2 -9.97671
968 1 11.2 46.4 4.8 -11.8907
999 2 9.6 48 3.2 -9.88642
970 3 14.4 46.4 4.8 -11.3683
1001 3 12.8 48 3.2 -11.4724
972 1 17.6 46.4 4.8 -11.7852
1003 2 16 48 3.2 -9.98793
974 3 20.8 46.4 4.8 -11.4579
1005 3 19.2 48 3.2 -11.513
976 1 24 46.4 4.8 -11.8423
1007 3 22.4 48 3.2 -11.5397
1009 3 25.6 48 3.2 -11.4473
978 1 27.2 46.4 4.8 -11.7823
1011 2 28.8 48 3.2 -9.97107
980 2 30.4 46.4 4.8 -9.97314
1013 3 32 48 3.2 -11.5414
982 2 33.6 46.4 4.8 -9.96491
1015 3 35.2 48 3.2 -11.5009
984 3 36.8 46.4 4.8 -11.4714
1017 3 38.4 48 3.2 -11.4749
986 3 40 46.4 4.8 -11.5375
1019 2 41.6 48 3.2 -9.86202
988 3 43.2 46.4 4.8 -11.4998
1021 1 44.8 48 3.2 -11.8187
990 3 46.4 46.4 4.8 -11.577
1023 2 48 48 3.2 -9.98414
992 2 49.6 46.4 4.8 -9.981
994 1 1.6 49.6 4.8 -11.6856
996 2 4.8 49.6 4.8 -9.90845
998 2 8 49.6 4.8 -9.85557
1000 1 11.2 49.6 4.8 -11.9431
1002 2 14.4 49.6 4.8 -9.97565
1004 2 17.6 49.6 4.8 -9.91003
1006 2 20.8 49.6 4.8 -9.98364
1008 1 24 49.6 4.8 -11.8531
1010 2 27.2 49.6 4.8 -9.89638
1012 3 30.4 49.6 4.8 -11.4764
1014 2 33.6 49.6 4.8 -9.93821
1016 1 36.8 49.6 4.8 -11.9244
1018 3 40 49.6 4.8 -11.4391
1020 2 43.2 49.6 4.8 -9.97345
1022 2 46.4 49.6 4.8 -9.9776
1024 3 49.6 49.6 4.8 -11.4006
1025 3 0 0 6.4 -11.4001
1026 2 1.6 1.6 8 -9.97916
1027 2 3.2 0 6.4 -9.90538
1028 3 4.8 1.6 8 -11.4697
1029 2 6.4 0 6.4 -9.98099
1030 3 8 1.6 8 -11.4129
1031 3 9.6 0 6.4 -11.4292
1032 1 11.2 1.6 8 -11.9101
1033 3 12.8 0 6.4 -11.4676
1034 1 14.4 1.6 8 -11.9332
1035 3 16 0 6.4 -11.4517
1036 2 17.6 1.6 8 -9.89228
1037 2 19.2 0 6.4 -9.94627
1038 2 20.8 1.6 8 -10.0073
1039 2 22.4 0 6.4 -9.95529
1040 2 24 1.6 8 -9.95016
1041 2 25.6 0 6.4 -9.92868
1042 3 27.2 1.6 8 -11.4504
1043 3 28.8 0 6.4 -11.3954
1044 1 30.4 1.6 8 -11.8452
1045 2 32 0 6.4 -9.9562
1046 3 33.6 1.6 8 -11.4839
1047 2 35.2 0 6.4 -10.0155
1048 3 36.8 1.6 8 -11.5176
1049 3 38.4 0 6.4 -11.4869
1050 2 40 1.6 8 -9.84385
1051 3 41.6 0 6.4 -11.4544
1052 1 43.2 1.6 8 -11.9251
1053 3 44.8 0 6.4 -11.4854
1054 3 46.4 1.6 8 -11.4831
1055 3 48 0 6.4 -11.5544
1056 2 49.6 1.6 8 -9.96629
1057 3 0 3.2 6.4 -11.4361
1058 3 1.6 4.8 8 -11.3384
1059 1 3.2 3.2 6.4 -11.9234
1060 3 4.8 4.8 8 -11.4331
1061 2 6.4 3.2 6.4 -9.86944
1062 3 8 4.8 8 -11.4495
1063 2 9.6 3.2 6.4 -10.0337
1064 2 11.2 4.8 8 -9.9655
1065 3 12.8 3.2 6.4 -11.4531
1066 3 14.4 4.8 8 -11.3738
1067 3 16 3.2 6.4 -11.3869
1068 1 17.6 4.8 8 -11.8893
1069 3 19.2 3.2 6.4 -11.4708
1070 3 20.8 4.8 8 -11.533
1071 3 22.4 3.2 6.4 -11.4849
1072 3 24 4.8 8 -11.482
1073 2 25.6 3.2 6.4 -9.91047
1074 2 27.2 4.8 8 -9.9135
1075 2 28.8 3.2 6.4 -9.92945
1076 2 30.4 4.8 8 -9.91499
1077 2 32 3.2 6.4 -9.91182
1078 3 33.6 4.8 8 -11.5139
1079 3 35.2 3.2 6.4 -11.5865
1080 2 36.8 4.8 8 -10.011
1081 2 38.4 3.2 6.4 -9.93276
1082 1 40 4.8 8 -11.8323
1083 2 41.6 3.2 6.4 -9.89322
1084 3 43.2 4.8 8 -11.3196
1085 2 44.8 3.2 6.4 -10.0058
1086 2 46.4 4.8 8 -9.92453
1087 2 48 3.2 6.4 -9.98278
1088 1 49.6 4.8 8 -11.7494
1089 2 0 6.4 6.4 -9.90058
1090 2 1.6 8 8 -9.89146
1091 1 3.2 6.4 6.4 -11.8398
1092 2 4.8 8 8 -9.8362
1093 1 6.4 6.4 6.4 -11.8548
1094 2 8 8 8 -9.91706
1095 3 9.6 6.4 6.4 -11.4416
1096 1 11.2 8 8 -11.8669
1097 2 12.8 6.4 6.4 -10.0276
1098 2 14.4 8 8 -9.90449
1099 3 16 6.4 6.4 -11.4522
1100 1 17.6 8 8 -11.8589
1101 3 19.2 6.4 6.4 -11.4135
1102 3 20.8 8 8 -11.4006
1103 2 22.4 6.4 6.4 -9.90005