ITEM: TIMESTEP
0
ITEM: NUMBER OF ATOMS
8192
ITEM: BOX BOUNDS pp pp pp
0.0000000000000000e+00 5.1200000000000003e+01
0.0000000000000000e+00 5.1200000000000003e+01
0.0000000000000000e+00 5.1200000000000003e+01
ITEM: ATOMS id type x y z c_eng
1 1 0 0 0 -11.9253
2 2 1.6 1.6 1.6 -9.9024
3 3 3.2 0 0 -11.4106
4 2 4.8 1.6 1.6 -9.96668
5 2 6.4 0 0 -9.97911
6 2 8 1.6 1.6 -9.88124
7 2 9.6 0 0 -9.86346
8 1 11.2 1.6 1.6 -11.7927
9 1 12.8 0 0 -11.8195
10 2 14.4 1.6 1.6 -9.83731
11 2 16 0 0 -9.89112
12 1 17.6 1.6 1.6 -11.818
13 3 19.2 0 0 -11.3178
14 1 20.8 1.6 1.6 -11.8369
15 2 22.4 0 0 -9.94706
16 1 24 1.6 1.6 -11.8613
17 3 25.6 0 0 -11.437
18 1 27.2 1.6 1.6 -11.9222
19 2 28.8 0 0 -9.95281
20 3 30.4 1.6 1.6 -11.452
21 2 32 0 0 -9.94517
22 2 33.6 1.6 1.6 -9.96003
23 3 35.2 0 0 -11.3128
24 1 36.8 1.6 1.6 -11.9131
25 2 38.4 0 0 -9.96665
26 2 40 1.6 1.6 -9.9656
27 1 41.6 0 0 -11.9083
28 2 43.2 1.6 1.6 -9.916
29 2 44.8 0 0 -9.94531
30 3 46.4 1.6 1.6 -11.3516
31 3 48 0 0 -11.4088
32 3 49.6 1.6 1.6 -11.391
33 2 0 3.2 0 -9.92969
34 1 1.6 4.8 1.6 -11.8891
35 2 3.2 3.2 0 -9.95366
36 2 4.8 4.8 1.6 -9.89842
37 2 6.4 3.2 0 -9.94438
38 2 8 4.8 1.6 -9.93207
39 2 9.6 3.2 0 -9.932
40 1 11.2 4.8 1.6 -11.8428
41 2 12.8 3.2 0 -9.85228
42 1 14.4 4.8 1.6 -11.8534
43 3 16 3.2 0 -11.3518
44 1 17.6 4.8 1.6 -11.8764
45 2 19.2 3.2 0 -9.93705
46 3 20.8 4.8 1.6 -11.3957
47 3 22.4 3.2 0 -11.5411
48 3 24 4.8 1.6 -11.426
49 3 25.6 3.2 0 -11.4859
50 1 27.2 4.8 1.6 -11.8566
51 3 28.8 3.2 0 -11.4437
52 3 30.4 4.8 1.6 -11.4544
53 3 32 3.2 0 -11.4808
54 3 33.6 4.8 1.6 -11.5129
55 3 35.2 3.2 0 -11.4779
56 3 36.8 4.8 1.6 -11.524
57 3 38.4 3.2 0 -11.5148
58 3 40 4.8 1.6 -11.5039
59 2 41.6 3.2 0 -9.97387
60 2 43.2 4.8 1.6 -9.95349
61 2 44.8 3.2 0 -9.92748
62 3 46.4 4.8 1.6 -11.4223
63 1 48 3.2 0 -11.9313
64 2 49.6 4.8 1.6 -9.94888
65 3 0 6.4 0 -11.4678
66 2 1.6 8 1.6 -9.89921
67 3 3.2 6.4 0 -11.5043
68 2 4.8 8 1.6 -9.99248
69 2 6.4 6.4 0 -9.96112
70 3 8 8 1.6 -11.5112
71 3 9.6 6.4 0 -11.4146
72 3 11.2 8 1.6 -11.4998
73 2 12.8 6.4 0 -9.9628
74 2 14.4 8 1.6 -9.95165
75 3 16 6.4 0 -11.5233
76 2 17.6 8 1.6 -9.91706
77 3 19.2 6.4 0 -11.4876
78 1 20.8 8 1.6 -11.8344
79 3 22.4 6.4 0 -11.5542
80 1 24 8 1.6 -11.8085
81 2 25.6 6.4 0 -9.89215
82 2 27.2 8 1.6 -9.79165
83 3 28.8 6.4 0 -11.3802
84 1 30.4 8 1.6 -11.9035
85 2 32 6.4 0 -9.98155
86 3 33.6 8 1.6 -11.4387
87 2 35.2 6.4 0 -9.97594
88 3 36.8 8 1.6 -11.3952
89 3 38.4 6.4 0 -11.4948
90 2 40 8 1.6 -9.95883
91 3 41.6 6.4 0 -11.4353
92 1 43.2 8 1.6 -11.87
93 3 44.8 6.4 0 -11.4153
94 1 46.4 8 1.6 -11.8014
95 2 48 6.4 0 -10.0005
96 1 49.6 8 1.6 -11.8434
97 2 0 9.6 0 -9.97768
98 2 1.6 11.2 1.6 -9.927
99 3 3.2 9.6 0 -11.4478
100 2 4.8 11.2 1.6 -9.99457
101 2 6.4 9.6 0 -9.99658
102 3 8 11.2 1.6 -11.5316
103 1 9.6 9.6 0 -12.0023
104 3 11.2 11.2 1.6 -11.4738
105 2 12.8 9.6 0 -9.90357
106 1 14.4 11.2 1.6 -11.849
107 2 16 9.6 0 -9.93113
108 2 17.6 11.2 1.6 -9.88532
109 1 19.2 9.6 0 -11.7901
110 2 20.8 11.2 1.6 -9.86477
111 3 22.4 9.6 0 -11.4414
112 1 24 11.2 1.6 -11.9214
113 3 25.6 9.6 0 -11.3868
114 1 27.2 11.2 1.6 -11.9011
115 3 28.8 9.6 0 -11.4488
116 1 30.4 11.2 1.6 -11.8561
117 3 32 9.6 0 -11.4455
118 3 33.6 11.2 1.6 -11.4532
119 3 35.2 9.6 0 -11.4712
120 3 36.8 11.2 1.6 -11.541
121 3 38.4 9.6 0 -11.4494
122 3 40 11.2 1.6 -11.5167
123 3 41.6 9.6 0 -11.528
124 3 43.2 11.2 1.6 -11.5242
125 2 44.8 9.6 0 -9.96315
126 2 46.4 11.2 1.6 -9.97899
127 3 48 9.6 0 -11.4324
128 2 49.6 11.2 1.6 -9.96506
129 2 0 12.8 0 -9.97976
130 2 1.6 14.4 1.6 -9.95806
131 2 3.2 12.8 0 -9.95782
132 2 4.8 14.4 1.6 -9.92996
133 2 6.4 12.8 0 -10.0018
134 2 8 14.4 1.6 -9.97996
135 2 9.6 12.8 0 -9.9865
136 3 11.2 14.4 1.6 -11.4626
137 3 12.8 12.8 0 -11.4436
138 3 14.4 14.4 1.6 -11.5077
139 3 16 12.8 0 -11.443
140 3 17.6 14.4 1.6 -11.4721
141 1 19.2 12.8 0 -11.8071
142 3 20.8 14.4 1.6 -11.4535
143 3 22.4 12.8 0 -11.4616
144 2 24 14.4 1.6 -9.9258
145 2 25.6 12.8 0 -9.92991
146 1 27.2 14.4 1.6 -11.8602
147 3 28.8 12.8 0 -11.3724
148 1 30.4 14.4 1.6 -11.8429
149 2 32 12.8 0 -9.94337
150 1 33.6 14.4 1.6 -11.9189
151 2 35.2 12.8 0 -9.98482
152 3 36.8 14.4 1.6 -11.4185
153 1 38.4 12.8 0 -11.8875
154 2 40 14.4 1.6 -9.89899
155 1 41.6 12.8 0 -11.9316
156 3 43.2 14.4 1.6 -11.4738
157 2 44.8 12.8 0 -9.93017
158 2 46.4 14.4 1.6 -9.98695
159 2 48 12.8 0 -9.93444
160 3 49.6 14.4 1.6 -11.3999
161 2 0 16 0 -9.93873
162 2 1.6 17.6 1.6 -9.94778
163 1 3.2 16 0 -11.7705
164 2 4.8 17.6 1.6 -9.92963
165 2 6.4 16 0 -9.89879
166 3 8 17.6 1.6 -11.3675
167 3 9.6 16 0 -11.4564
168 3 11.2 17.6 1.6 -11.5288
169 3 12.8 16 0 -11.5458
170 3 14.4 17.6 1.6 -11.4652
171 3 16 16 0 -11.543
172 2 17.6 17.6 1.6 -9.9714
173 1 19.2 16 0 -11.9099
174 2 20.8 17.6 1.6 -9.97486
175 2 22.4 16 0 -10.013
176 2 24 17.6 1.6 -9.96602
177 2 25.6 16 0 -9.93841
178 2 27.2 17.6 1.6 -9.98939
179 2 28.8 16 0 -9.97123
180 3 30.4 17.6 1.6 -11.4788
181 2 32 16 0 -9.95113
182 3 33.6 17.6 1.6 -11.4396
183 2 35.2 16 0 -9.92935
184 3 36.8 17.6 1.6 -11.5006
185 1 38.4 16 0 -11.7937
186 2 40 17.6 1.6 -9.90594
187 1 41.6 16 0 -11.8437
188 3 43.2 17.6 1.6 -11.4409
189 2 44.8 16 0 -9.85246
190 3 46.4 17.6 1.6 -11.4212
191 1 48 16 0 -11.8424
192 3 49.6 17.6 1.6 -11.4678
193 2 0 19.2 0 -9.98912
194 2 1.6 20.8 1.6 -9.93909
195 2 3.2 19.2 0 -9.90277
196 2 4.8 20.8 1.6 -9.92183
197 3 6.4 19.2 0 -11.3336
198 1 8 20.8 1.6 -11.8068
199 3 9.6 19.2 0 -11.4948
200 1 11.2 20.8 1.6 -11.8783
201 2 12.8 19.2 0 -10.0348
202 1 14.4 20.8 1.6 -11.9058
203 2 16 19.2 0 -10.0081
204 2 17.6 20.8 1.6 -9.855
205 2 19.2 19.2 0 -9.93897
206 1 20.8 20.8 1.6 -11.9173
207 3 22.4 19.2 0 -11.5022
208 1 24 20.8 1.6 -11.9033
209 3 25.6 19.2 0 -11.4536
210 2 27.2 20.8 1.6 -9.93223
211 1 28.8 19.2 0 -11.8694
212 2 30.4 20.8 1.6 -9.88798
213 1 32 19.2 0 -11.7936
214 2 33.6 20.8 1.6 -9.93018
215 1 35.2 19.2 0 -11.8192
216 3 36.8 20.8 1.6 -11.4991
217 2 38.4 19.2 0 -9.82585
218 3 40 20.8 1.6 -11.521
219 1 41.6 19.2 0 -11.8695
220 3 43.2 20.8 1.6 -11.4479
221 1 44.8 19.2 0 -11.9055
222 3 46.4 20.8 1.6 -11.5092
223 1 48 19.2 0 -11.9096
224 2 49.6 20.8 1.6 -9.99859
225 2 0 22.4 0 -9.93686
226 2 1.6 24 1.6 -9.92935
227 1 3.2 22.4 0 -11.8243
228 3 4.8 24 1.6 -11.4317
229 1 6.4 22.4 0 -11.8028
230 2 8 24 1.6 -9.90299
231 3 9.6 22.4 0 -11.3742
232 1 11.2 24 1.6 -11.9159
233 3 12.8 22.4 0 -11.4406
234 3 14.4 24 1.6 -11.5114
235 3 16 22.4 0 -11.4845
236 3 17.6 24 1.6 -11.5309
237 3 19.2 22.4 0 -11.5261
238 3 20.8 24 1.6 -11.5233
239 3 22.4 22.4 0 -11.5563
240 1 24 24 1.6 -11.9095
241 3 25.6 22.4 0 -11.5116
242 1 27.2 24 1.6 -11.9053
243 3 28.8 22.4 0 -11.381
244 1 30.4 24 1.6 -11.8497
245 2 32 22.4 0 -9.86671
246 2 33.6 24 1.6 -9.87242
247 2 35.2 22.4 0 -9.94103
248 3 36.8 24 1.6 -11.443
249 2 38.4 22.4 0 -9.92745
250 3 40 24 1.6 -11.4718
251 1 41.6 22.4 0 -11.9194
252 2 43.2 24 1.6 -9.9834
253 3 44.8 22.4 0 -11.3919
254 3 46.4 24 1.6 -11.494
255 2 48 22.4 0 -9.98112
256 2 49.6 24 1.6 -9.93066
257 1 0 25.6 0 -11.7893
259 1 3.2 25.6 0 -11.8696
261 2 6.4 25.6 0 -9.92998
263 3 9.6 25.6 0 -11.4198
265 3 12.8 25.6 0 -11.4029
267 3 16 25.6 0 -11.5448
269 3 19.2 25.6 0 -11.5698
271 3 22.4 25.6 0 -11.4466
273 3 25.6 25.6 0 -11.5292
275 3 28.8 25.6 0 -11.4113
277 3 32 25.6 0 -11.3801
279 2 35.2 25.6 0 -9.95435
281 1 38.4 25.6 0 -11.8744
283 2 41.6 25.6 0 -9.87899
285 2 44.8 25.6 0 -9.93654
287 1 48 25.6 0 -11.8824
258 2 1.6 27.2 1.6 -9.95289
289 1 0 28.8 0 -11.9029
260 3 4.8 27.2 1.6 -11.5015
291 2 3.2 28.8 0 -9.96137
262 3 8 27.2 1.6 -11.437
293 3 6.4 28.8 0 -11.4517
264 1 11.2 27.2 1.6 -11.8904
295 3 9.6 28.8 0 -11.3311
266 3 14.4 27.2 1.6 -11.5427
297 2 12.8 28.8 0 -9.94732
268 2 17.6 27.2 1.6 -9.98255
299 2 16 28.8 0 -9.92738
270 3 20.8 27.2 1.6 -11.6148
301 2 19.2 28.8 0 -9.93368
272 3 24 27.2 1.6 -11.5438
303 1 22.4 28.8 0 -11.9973
305 2 25.6 28.8 0 -9.99815
274 2 27.2 27.2 1.6 -9.94162
307 2 28.8 28.8 0 -9.86074
276 2 30.4 27.2 1.6 -9.82275
309 2 32 28.8 0 -9.9332
278 1 33.6 27.2 1.6 -11.8298
311 3 35.2 28.8 0 -11.5229
280 2 36.8 27.2 1.6 -9.94884
313 2 38.4 28.8 0 -9.96908
282 3 40 27.2 1.6 -11.4211
315 2 41.6 28.8 0 -9.99464
284 3 43.2 27.2 1.6 -11.4556
317 2 44.8 28.8 0 -9.94784
286 3 46.4 27.2 1.6 -11.523
319 3 48 28.8 0 -11.4189
288 2 49.6 27.2 1.6 -9.9537
290 2 1.6 30.4 1.6 -9.95481
321 1 0 32 0 -11.8944
292 1 4.8 30.4 1.6 -11.8977
323 2 3.2 32 0 -9.88254
294 1 8 30.4 1.6 -11.8767
325 3 6.4 32 0 -11.4104
296 1 11.2 30.4 1.6 -11.8477
327 3 9.6 32 0 -11.3853
298 2 14.4 30.4 1.6 -9.92877
329 2 12.8 32 0 -9.94234
300 2 17.6 30.4 1.6 -9.9731
331 2 16 32 0 -9.91706
302 3 20.8 30.4 1.6 -11.4812
333 2 19.2 32 0 -9.93367
304 3 24 30.4 1.6 -11.5092
335 1 22.4 32 0 -11.9648
337 3 25.6 32 0 -11.5315
306 1 27.2 30.4 1.6 -11.8339
339 3 28.8 32 0 -11.4247
308 1 30.4 30.4 1.6 -11.7385
341 3 32 32 0 -11.3555
310 2 33.6 30.4 1.6 -9.85889
343 3 35.2 32 0 -11.5027
312 1 36.8 30.4 1.6 -11.8741
345 3 38.4 32 0 -11.4699
314 1 40 30.4 1.6 -11.9113
347 3 41.6 32 0 -11.4924
316 2 43.2 30.4 1.6 -9.89628
349 2 44.8 32 0 -9.92462
318 3 46.4 30.4 1.6 -11.5091
351 2 48 32 0 -9.96418
320 3 49.6 30.4 1.6 -11.4787
322 3 1.6 33.6 1.6 -11.4311
353 2 0 35.2 0 -9.91317
324 3 4.8 33.6 1.6 -11.4775
355 1 3.2 35.2 0 -11.8743
326 1 8 33.6 1.6 -11.9293
357 3 6.4 35.2 0 -11.4797
328 2 11.2 33.6 1.6 -9.91371
359 3 9.6 35.2 0 -11.4069
330 2 14.4 33.6 1.6 -9.92108
361 1 12.8 35.2 0 -11.8526
332 2 17.6 33.6 1.6 -9.91988
363 1 16 35.2 0 -11.7964
334 2 20.8 33.6 1.6 -10.003
365 2 19.2 35.2 0 -9.91344
336 3 24 33.6 1.6 -11.551
367 2 22.4 35.2 0 -9.89826
369 2 25.6 35.2 0 -10.0395
338 3 27.2 33.6 1.6 -11.468
371 2 28.8 35.2 0 -9.96322
340 2 30.4 33.6 1.6 -9.86886
373 3 32 35.2 0 -11.4075
342 1 33.6 33.6 1.6 -11.8633
375 3 35.2 35.2 0 -11.4142
344 1 36.8 33.6 1.6 -11.8356
377 3 38.4 35.2 0 -11.5154
346 2 40 33.6 1.6 -9.91824
379 3 41.6 35.2 0 -11.5532
348 2 43.2 33.6 1.6 -9.93256
381 1 44.8 35.2 0 -11.8694
350 3 46.4 33.6 1.6 -11.4686
383 3 48 35.2 0 -11.4689
352 3 49.6 33.6 1.6 -11.5956
354 3 1.6 36.8 1.6 -11.4711
385 3 0 38.4 0 -11.47
356 3 4.8 36.8 1.6 -11.519
387 1 3.2 38.4 0 -11.9102
358 1 8 36.8 1.6 -11.9478
389 3 6.4 38.4 0 -11.4625
360 3 11.2 36.8 1.6 -11.4706
391 2 9.6 38.4 0 -9.9501
362 3 14.4 36.8 1.6 -11.3564
393 2 12.8 38.4 0 -9.93018
364 2 17.6 36.8 1.6 -9.96987
395 2 16 38.4 0 -9.98514
366 2 20.8 36.8 1.6 -9.86636
397 2 19.2 38.4 0 -9.93661
368 3 24 36.8 1.6 -11.4004
399 2 22.4 38.4 0 -9.87633
401 3 25.6 38.4 0 -11.4612
370 2 27.2 36.8 1.6 -9.97884
403 2 28.8 38.4 0 -9.99168
372 2 30.4 36.8 1.6 -9.91845
405 2 32 38.4 0 -9.97835
374 2 33.6 36.8 1.6 -9.93591
407 2 35.2 38.4 0 -9.98273
376 1 36.8 36.8 1.6 -11.9129
409 3 38.4 38.4 0 -11.5377
378 3 40 36.8 1.6 -11.5768
411 3 41.6 38.4 0 -11.5896
380 3 43.2 36.8 1.6 -11.436
413 2 44.8 38.4 0 -9.88669
382 2 46.4 36.8 1.6 -9.97438
415 2 48 38.4 0 -9.94498
384 3 49.6 36.8 1.6 -11.5864
386 3 1.6 40 1.6 -11.5162
417 3 0 41.6 0 -11.5163
388 3 4.8 40 1.6 -11.5152
419 2 3.2 41.6 0 -9.97462
390 2 8 40 1.6 -9.89079
421 2 6.4 41.6 0 -9.96998
392 3 11.2 40 1.6 -11.5097
423 2 9.6 41.6 0 -9.92671
394 1 14.4 40 1.6 -11.875
425 1 12.8 41.6 0 -11.8217
396 3 17.6 40 1.6 -11.4703
427 2 16 41.6 0 -9.97037
398 2 20.8 40 1.6 -9.94645
429 2 19.2 41.6 0 -10.0018
400 3 24 40 1.6 -11.452
431 2 22.4 41.6 0 -9.93557
433 3 25.6 41.6 0 -11.5485
402 3 27.2 40 1.6 -11.5413
435 3 28.8 41.6 0 -11.5159
404 3 30.4 40 1.6 -11.4727
437 1 32 41.6 0 -11.884
406 2 33.6 40 1.6 -9.89767
439 1 35.2 41.6 0 -11.8218
408 3 36.8 40 1.6 -11.4511
441 2 38.4 41.6 0 -9.97126
410 3 40 40 1.6 -11.5114
443 2 41.6 41.6 0 -9.96507
412 3 43.2 40 1.6 -11.4331
445 1 44.8 41.6 0 -11.8224
414 2 46.4 40 1.6 -9.86616
447 1 48 41.6 0 -11.7989
416 2 49.6 40 1.6 -9.99871
418 2 1.6 43.2 1.6 -9.98393
449 2 0 44.8 0 -9.92169
420 2 4.8 43.2 1.6 -9.98408
451 2 3.2 44.8 0 -9.94634
422 1 8 43.2 1.6 -11.8389
453 2 6.4 44.8 0 -9.95158
424 3 11.2 43.2 1.6 -11.4122
455 2 9.6 44.8 0 -9.91377
426 2 14.4 43.2 1.6 -9.85189
457 1 12.8 44.8 0 -11.7891
428 2 17.6 43.2 1.6 -9.95908
459 2 16 44.8 0 -9.85032
430 2 20.8 43.2 1.6 -9.99197
461 2 19.2 44.8 0 -9.96041
432 2 24 43.2 1.6 -9.9842
463 1 22.4 44.8 0 -11.8202
465 3 25.6 44.8 0 -11.3304
434 1 27.2 43.2 1.6 -11.8674
467 3 28.8 44.8 0 -11.4223
436 2 30.4 43.2 1.6 -9.97057
469 3 32 44.8 0 -11.4874
438 3 33.6 43.2 1.6 -11.346
471 3 35.2 44.8 0 -11.5111
440 3 36.8 43.2 1.6 -11.5032
473 3 38.4 44.8 0 -11.5359
442 2 40 43.2 1.6 -10.0014
475 3 41.6 44.8 0 -11.5707
444 3 43.2 43.2 1.6 -11.4207
477 3 44.8 44.8 0 -11.4871
446 2 46.4 43.2 1.6 -9.92137
479 2 48 44.8 0 -9.9603
448 2 49.6 43.2 1.6 -9.95051
450 2 1.6 46.4 1.6 -9.92814
481 2 0 48 0 -9.97307
452 2 4.8 46.4 1.6 -9.97517
483 2 3.2 48 0 -9.97571
454 2 8 46.4 1.6 -9.89347
485 2 6.4 48 0 -9.92433
456 2 11.2 46.4 1.6 -9.87663
487 1 9.6 48 0 -11.8053
458 2 14.4 46.4 1.6 -9.88759
489 1 12.8 48 0 -11.8101
460 2 17.6 46.4 1.6 -9.9204
491 1 16 48 0 -11.8639
462 3 20.8 46.4 1.6 -11.4938
493 2 19.2 48 0 -9.9562
464 3 24 46.4 1.6 -11.4192
495 2 22.4 48 0 -9.89528
497 3 25.6 48 0 -11.4057
466 1 27.2 46.4 1.6 -11.856
499 2 28.8 48 0 -9.9339
468 2 30.4 46.4 1.6 -9.96447
501 3 32 48 0 -11.5178
470 3 33.6 46.4 1.6 -11.5848
503 3 35.2 48 0 -11.5645
472 3 36.8 46.4 1.6 -11.5107
505 3 38.4 48 0 -11.5221
474 1 40 46.4 1.6 -11.936
507 3 41.6 48 0 -11.5224
476 1 43.2 46.4 1.6 -11.9087
509 2 44.8 48 0 -10.0137
478 2 46.4 46.4 1.6 -9.95591
511 2 48 48 0 -9.9555
480 2 49.6 46.4 1.6 -9.92986
482 2 1.6 49.6 1.6 -9.93353
484 2 4.8 49.6 1.6 -9.96949
486 2 8 49.6 1.6 -9.91636
488 2 11.2 49.6 1.6 -9.88194
490 3 14.4 49.6 1.6 -11.3612
492 2 17.6 49.6 1.6 -9.93627
494 2 20.8 49.6 1.6 -9.94499
496 3 24 49.6 1.6 -11.4196
498 2 27.2 49.6 1.6 -9.89509
500 2 30.4 49.6 1.6 -9.97568
502 3 33.6 49.6 1.6 -11.4751
504 2 36.8 49.6 1.6 -9.92529
506 2 40 49.6 1.6 -9.9842
508 2 43.2 49.6 1.6 -9.96139
510 3 46.4 49.6 1.6 -11.3664
512 3 49.6 49.6 1.6 -11.4026
513 1 0 0 3.2 -11.836
514 2 1.6 1.6 4.8 -9.98152
515 2 3.2 0 3.2 -9.9062
516 2 4.8 1.6 4.8 -9.9213
517 2 6.4 0 3.2 -9.94094
518 1 8 1.6 4.8 -11.8448
519 3 9.6 0 3.2 -11.4178
520 1 11.2 1.6 4.8 -11.9022
521 3 12.8 0 3.2 -11.3265
522 1 14.4 1.6 4.8 -11.8691
523 2 16 0 3.2 -9.95827
524 2 17.6 1.6 4.8 -9.90037
525 2 19.2 0 3.2 -9.96819
526 2 20.8 1.6 4.8 -9.89116
527 2 22.4 0 3.2 -9.90919
528 1 24 1.6 4.8 -11.9067
529 3 25.6 0 3.2 -11.4592
530 3 27.2 1.6 4.8 -11.4612
531 2 28.8 0 3.2 -9.97954
532 3 30.4 1.6 4.8 -11.539
533 1 32 0 3.2 -11.9012
534 3 33.6 1.6 4.8 -11.4845
535 2 35.2 0 3.2 -9.98108
536 2 36.8 1.6 4.8 -9.90592
537 3 38.4 0 3.2 -11.3821
538 2 40 1.6 4.8 -9.99465
539 2 41.6 0 3.2 -9.93797
540 2 43.2 1.6 4.8 -9.92614
541 1 44.8 0 3.2 -11.8162
542 2 46.4 1.6 4.8 -9.87705
543 1 48 0 3.2 -11.8363
544 3 49.6 1.6 4.8 -11.4641
545 2 0 3.2 3.2 -9.93716
546 3 1.6 4.8 4.8 -11.4615
547 2 3.2 3.2 3.2 -9.88337
548 3 4.8 4.8 4.8 -11.4079
549 1 6.4 3.2 3.2 -11.7762
550 2 8 4.8 4.8 -9.94331
551 3 9.6 3.2 3.2 -11.3205
552 2 11.2 4.8 4.8 -9.85501
553 3 12.8 3.2 3.2 -11.3025
554 1 14.4 4.8 4.8 -11.872
555 3 16 3.2 3.2 -11.3417
556 1 17.6 4.8 4.8 -11.8944
557 3 19.2 3.2 3.2 -11.3581
558 1 20.8 4.8 4.8 -11.8966
559 2 22.4 3.2 3.2 -9.96756
560 3 24 4.8 4.8 -11.4493
561 3 25.6 3.2 3.2 -11.4481
562 3 27.2 4.8 4.8 -11.5211
563 3 28.8 3.2 3.2 -11.5155
564 2 30.4 4.8 4.8 -10.0076
565 1 32 3.2 3.2 -11.9532
566 3 33.6 4.8 4.8 -11.4808
567 3 35.2 3.2 3.2 -11.4542
568 2 36.8 4.8 4.8 -10.0026
569 2 38.4 3.2 3.2 -9.99314
570 3 40 4.8 4.8 -11.4873
571 2 41.6 3.2 3.2 -9.96705
572 3 43.2 4.8 4.8 -11.489
573 1 44.8 3.2 3.2 -11.8526
574 3 46.4 4.8 4.8 -11.464
575 1 48 3.2 3.2 -11.874
576 3 49.6 4.8 4.8 -11.4636
577 3 0 6.4 3.2 -11.4461
578 2 1.6 8 4.8 -9.89838
579 2 3.2 6.4 3.2 -9.89333
580 3 4.8 8 4.8 -11.3828
581 1 6.4 6.4 3.2 -11.8663
582 3 8 8 4.8 -11.4665
583 2 9.6 6.4 3.2 -9.95007
584 2 11.2 8 4.8 -9.91907
585 2 12.8 6.4 3.2 -9.92446
586 2 14.4 8 4.8 -9.95532
587 3 16 6.4 3.2 -11.4109
588 2 17.6 8 4.8 -9.90579
589 3 19.2 6.4 3.2 -11.3896
590 1 20.8 8 4.8 -11.9004
591 2 22.4 6.4 3.2 -9.92542
592 2 24 8 4.8 -9.93877
593 1 25.6 6.4 3.2 -11.7942
594 3 27.2 8 4.8 -11.5192
595 2 28.8 6.4 3.2 -9.9754
596 2 30.4 8 4.8 -9.95303
597 2 32 6.4 3.2 -9.86673
598 3 33.6 8 4.8 -11.426
599 1 35.2 6.4 3.2 -11.8968
600 2 36.8 8 4.8 -9.85237
601 1 38.4 6.4 3.2 -11.8709
602 2 40 8 4.8 -9.91617
603 3 41.6 6.4 3.2 -11.4807
604 1 43.2 8 4.8 -11.8572
605 2 44.8 6.4 3.2 -9.88924
606 1 46.4 8 4.8 -11.7998
607 3 48 6.4 3.2 -11.3301
608 1 49.6 8 4.8 -11.8548
609 2 0 9.6 3.2 -9.9299
610 2 1.6 11.2 4.8 -9.92995
611 1 3.2 9.6 3.2 -11.8392
612 3 4.8 11.2 4.8 -11.4835
613 2 6.4 9.6 3.2 -9.94066
614 2 8 11.2 4.8 -9.97201
615 3 9.6 9.6 3.2 -11.4652
616 1 11.2 11.2 4.8 -11.8647
617 2 12.8 9.6 3.2 -9.97739
618 2 14.4 11.2 4.8 -9.91441
619 2 16 9.6 3.2 -9.97081
620 3 17.6 11.2 4.8 -11.4222
621 2 19.2 9.6 3.2 -9.9071
622 3 20.8 11.2 4.8 -11.5096
623 3 22.4 9.6 3.2 -11.4246
624 3 24 11.2 4.8 -11.5176
625 3 25.6 9.6 3.2 -11.4918
626 3 27.2 11.2 4.8 -11.5677
627 3 28.8 9.6 3.2 -11.4559
628 1 30.4 11.2 4.8 -11.9354
629 2 32 9.6 3.2 -9.95619
630 2 33.6 11.2 4.8 -9.98486
631 1 35.2 9.6 3.2 -11.8845
632 2 36.8 11.2 4.8 -9.90576
633 1 38.4 9.6 3.2 -11.8621
634 2 40 11.2 4.8 -9.95654
635 3 41.6 9.6 3.2 -11.4803
636 3 43.2 11.2 4.8 -11.4561
637 2 44.8 9.6 3.2 -9.88024
638 2 46.4 11.2 4.8 -9.92936
639 2 48 9.6 3.2 -9.88043
640 2 49.6 11.2 4.8 -9.91852
641 3 0 12.8 3.2 -11.4369
642 1 1.6 14.4 4.8 -11.882
643 2 3.2 12.8 3.2 -9.96681
644 3 4.8 14.4 4.8 -11.5121
645 2 6.4 12.8 3.2 -9.97153
646 2 8 14.4 4.8 -9.85426
647 2 9.6 12.8 3.2 -9.93709
648 1 11.2 14.4 4.8 -11.7304
649 2 12.8 12.8 3.2 -9.93741
650 2 14.4 14.4 4.8 -9.90623
651 2 16 12.8 3.2 -9.9568
652 2 17.6 14.4 4.8 -9.93624
653 1 19.2 12.8 3.2 -11.8943
654 3 20.8 14.4 4.8 -11.4814
655 2 22.4 12.8 3.2 -9.96452
656 2 24 14.4 4.8 -9.97376
657 3 25.6 12.8 3.2 -11.4644
658 3 27.2 14.4 4.8 -11.5211
659 3 28.8 12.8 3.2 -11.4153
660 1 30.4 14.4 4.8 -11.9704
661 3 32 12.8 3.2 -11.384
662 2 33.6 14.4 4.8 -9.91603
663 3 35.2 12.8 3.2 -11.5125
664 1 36.8 14.4 4.8 -11.9787
665 3 38.4 12.8 3.2 -11.4297
666 1 40 14.4 4.8 -11.9033
667 2 41.6 12.8 3.2 -9.99149
668 2 43.2 14.4 4.8 -10.0063
669 2 44.8 12.8 3.2 -9.98891
670 2 46.4 14.4 4.8 -9.9337
671 2 48 12.8 3.2 -9.93366
672 1 49.6 14.4 4.8 -11.8351
673 3 0 16 3.2 -11.4191
674 1 1.6 17.6 4.8 -11.9063
675 2 3.2 16 3.2 -9.91857
676 3 4.8 17.6 4.8 -11.4598
677 1 6.4 16 3.2 -11.8448
678 2 8 17.6 4.8 -9.95722
679 1 9.6 16 3.2 -11.7959
680 2 11.2 17.6 4.8 -9.91612
681 2 12.8 16 3.2 -9.94137
682 1 14.4 17.6 4.8 -11.8339
683 2 16 16 3.2 -9.94759
684 1 17.6 17.6 4.8 -11.825
685 2 19.2 16 3.2 -9.9193
686 3 20.8 17.6 4.8 -11.463
687 2 22.4 16 3.2 -9.9523
688 2 24 17.6 4.8 -9.94618
689 2 25.6 16 3.2 -10.0008
690 3 27.2 17.6 4.8 -11.5732
691 3 28.8 16 3.2 -11.5123
692 3 30.4 17.6 4.8 -11.5455
693 3 32 16 3.2 -11.5624
694 3 33.6 17.6 4.8 -11.6159
695 3 35.2 16 3.2 -11.5193
696 3 36.8 17.6 4.8 -11.5092
697 3 38.4 16 3.2 -11.4426
698 1 40 17.6 4.8 -11.8484
699 2 41.6 16 3.2 -9.94185
700 3 43.2 17.6 4.8 -11.4717
701 2 44.8 16 3.2 -9.92352
702 3 46.4 17.6 4.8 -11.4227
703 1 48 16 3.2 -11.8564
704 2 49.6 17.6 4.8 -9.91839
705 3 0 19.2 3.2 -11.4789
706 1 1.6 20.8 4.8 -11.8652
707 3 3.2 19.2 3.2 -11.496
708 2 4.8 20.8 4.8 -9.99334
709 2 6.4 19.2 3.2 -9.96628
710 2 8 20.8 4.8 -9.96103
711 2 9.6 19.2 3.2 -9.97363
712 3 11.2 20.8 4.8 -11.4205
713 3 12.8 19.2 3.2 -11.4229
714 1 14.4 20.8 4.8 -11.8596
715 2 16 19.2 3.2 -9.86034
716 1 17.6 20.8 4.8 -11.8511
717 2 19.2 19.2 3.2 -9.95222
718 3 20.8 20.8 4.8 -11.4703
719 2 22.4 19.2 3.2 -9.93572
720 2 24 20.8 4.8 -9.98675
721 2 25.6 19.2 3.2 -9.99089
722 2 27.2 20.8 4.8 -10.0094
723 2 28.8 19.2 3.2 -9.99046
724 1 30.4 20.8 4.8 -11.8899
725 3 32 19.2 3.2 -11.4221
726 2 33.6 20.8 4.8 -9.98554
727 1 35.2 19.2 3.2 -11.9497
728 3 36.8 20.8 4.8 -11.4731
729 2 38.4 19.2 3.2 -9.96639
730 2 40 20.8 4.8 -9.97733
731 2 41.6 19.2 3.2 -9.92653
732 3 43.2 20.8 4.8 -11.4841
733 1 44.8 19.2 3.2 -11.9292
734 3 46.4 20.8 4.8 -11.4718
735 3 48 19.2 3.2 -11.4199
736 1 49.6 20.8 4.8 -11.8745
737 3 0 22.4 3.2 -11.4594
738 2 1.6 24 4.8 -9.93174
739 3 3.2 22.4 3.2 -11.4975
740 3 4.8 24 4.8 -11.4539
741 2 6.4 22.4 3.2 -9.89235
742 2 8 24 4.8 -10.0144
743 2 9.6 22.4 3.2 -9.97225
744 3 11.2 24 4.8 -11.4943
745 3 12.8 22.4 3.2 -11.4999
746 3 14.4 24 4.8 -11.5106
747 3 16 22.4 3.2 -11.5018
748 1 17.6 24 4.8 -11.949
749 3 19.2 22.4 3.2 -11.5628
750 3 20.8 24 4.8 -11.5809
751 3 22.4 22.4 3.2 -11.4899
752 3 24 24 4.8 -11.5392
753 3 25.6 22.4 3.2 -11.5274
754 3 27.2 24 4.8 -11.5171
755 3 28.8 22.4 3.2 -11.451
756 2 30.4 24 4.8 -9.89135
757 2 32 22.4 3.2 -9.95326
758 2 33.6 24 4.8 -9.9409
759 2 35.2 22.4 3.2 -9.95236
760 2 36.8 24 4.8 -10.0438
761 2 38.4 22.4 3.2 -10.0005
762 3 40 24 4.8 -11.4742
763 3 41.6 22.4 3.2 -11.4076
764 3 43.2 24 4.8 -11.4039
765 1 44.8 22.4 3.2 -11.9538
766 3 46.4 24 4.8 -11.5668
767 3 48 22.4 3.2 -11.5267
768 1 49.6 24 4.8 -11.9021
769 3 0 25.6 3.2 -11.4491
771 3 3.2 25.6 3.2 -11.4937
773 1 6.4 25.6 3.2 -11.9271
775 3 9.6 25.6 3.2 -11.4745
777 3 12.8 25.6 3.2 -11.533
779 3 16 25.6 3.2 -11.6095
781 3 19.2 25.6 3.2 -11.5659
783 1 22.4 25.6 3.2 -11.9473
785 3 25.6 25.6 3.2 -11.4971
787 2 28.8 25.6 3.2 -9.94658
789 2 32 25.6 3.2 -9.83954
791 2 35.2 25.6 3.2 -9.94692
793 1 38.4 25.6 3.2 -11.9087
795 1 41.6 25.6 3.2 -11.9179
797 1 44.8 25.6 3.2 -11.9086
799 3 48 25.6 3.2 -11.477
770 2 1.6 27.2 4.8 -9.90895
801 3 0 28.8 3.2 -11.4421
772 2 4.8 27.2 4.8 -9.99885
803 3 3.2 28.8 3.2 -11.4919
774 3 8 27.2 4.8 -11.4569
805 3 6.4 28.8 3.2 -11.4583
776 1 11.2 27.2 4.8 -11.9191
807 3 9.6 28.8 3.2 -11.4151
778 3 14.4 27.2 4.8 -11.4468
809 3 12.8 28.8 3.2 -11.3756
780 1 17.6 27.2 4.8 -11.8879
811 2 16 28.8 3.2 -9.97523
782 3 20.8 27.2 4.8 -11.495
813 3 19.2 28.8 3.2 -11.5207
784 3 24 27.2 4.8 -11.5303
815 3 22.4 28.8 3.2 -11.4854
817 3 25.6 28.8 3.2 -11.498
786 2 27.2 27.2 4.8 -9.95423
819 2 28.8 28.8 3.2 -9.83199
788 2 30.4 27.2 4.8 -9.89539
821 1 32 28.8 3.2 -11.7311
790 2 33.6 27.2 4.8 -9.93759
823 3 35.2 28.8 3.2 -11.3882
792 3 36.8 27.2 4.8 -11.4701
825 3 38.4 28.8 3.2 -11.4445
794 3 40 27.2 4.8 -11.5029
827 3 41.6 28.8 3.2 -11.4255
796 3 43.2 27.2 4.8 -11.4627
829 1 44.8 28.8 3.2 -11.8914
798 3 46.4 27.2 4.8 -11.5167
831 3 48 28.8 3.2 -11.5254
800 1 49.6 27.2 4.8 -11.8697
802 2 1.6 30.4 4.8 -9.87519
833 2 0 32 3.2 -9.91271
804 1 4.8 30.4 4.8 -11.857
835 2 3.2 32 3.2 -9.94932
806 1 8 30.4 4.8 -11.9393
837 3 6.4 32 3.2 -11.4377
808 1 11.2 30.4 4.8 -11.8111
839 3 9.6 32 3.2 -11.3904
810 1 14.4 30.4 4.8 -11.8582
841 2 12.8 32 3.2 -9.8904
812 1 17.6 30.4 4.8 -11.8486
843 3 16 32 3.2 -11.4017
814 1 20.8 30.4 4.8 -11.9454
845 3 19.2 32 3.2 -11.4803
816 2 24 30.4 4.8 -9.96998
847 2 22.4 32 3.2 -9.95338
849 2 25.6 32 3.2 -9.98365
818 1 27.2 30.4 4.8 -11.8221
851 2 28.8 32 3.2 -9.88698
820 2 30.4 30.4 4.8 -9.90442
853 2 32 32 3.2 -9.93243
822 3 33.6 30.4 4.8 -11.4875
855 2 35.2 32 3.2 -9.89637
824 1 36.8 30.4 4.8 -11.9072
857 3 38.4 32 3.2 -11.3053
826 2 40 30.4 4.8 -9.89833
859 2 41.6 32 3.2 -9.93377
828 2 43.2 30.4 4.8 -9.95598
861 1 44.8 32 3.2 -11.8303
830 2 46.4 30.4 4.8 -9.93406
863 2 48 32 3.2 -9.9818
832 1 49.6 30.4 4.8 -11.7604
834 2 1.6 33.6 4.8 -9.9364
865 2 0 35.2 3.2 -9.90202
836 3 4.8 33.6 4.8 -11.5027
867 1 3.2 35.2 3.2 -11.9558
838 2 8 33.6 4.8 -9.97464
869 3 6.4 35.2 3.2 -11.5663
840 2 11.2 33.6 4.8 -9.91009
871 3 9.6 35.2 3.2 -11.439
842 2 14.4 33.6 4.8 -9.87976
873 1 12.8 35.2 3.2 -11.849
844 1 17.6 33.6 4.8 -11.9209
875 2 16 35.2 3.2 -9.91506
846 3 20.8 33.6 4.8 -11.4791
877 2 19.2 35.2 3.2 -9.92662
848 3 24 33.6 4.8 -11.5467
879 1 22.4 35.2 3.2 -11.9279
881 2 25.6 35.2 3.2 -9.91184
850 2 27.2 33.6 4.8 -9.99882
883 1 28.8 35.2 3.2 -11.8489
852 2 30.4 33.6 4.8 -9.99528
885 2 32 35.2 3.2 -9.94637
854 3 33.6 33.6 4.8 -11.4642
887 2 35.2 35.2 3.2 -9.92514
856 1 36.8 33.6 4.8 -11.8518
889 3 38.4 35.2 3.2 -11.4014
858 1 40 33.6 4.8 -11.8525
891 2 41.6 35.2 3.2 -9.9542
860 2 43.2 33.6 4.8 -9.92727
893 1 44.8 35.2 3.2 -11.836
862 3 46.4 33.6 4.8 -11.5456
895 3 48 35.2 3.2 -11.5538
864 2 49.6 33.6 4.8 -9.95676
866 3 1.6 36.8 4.8 -11.4859
897 1 0 38.4 3.2 -11.9573
868 3 4.8 36.8 4.8 -11.5677
899 2 3.2 38.4 3.2 -9.92376
870 3 8 36.8 4.8 -11.4233
901 3 6.4 38.4 3.2 -11.5646
872 2 11.2 36.8 4.8 -10.0279
903 3 9.6 38.4 3.2 -11.6025
874 2 14.4 36.8 4.8 -9.99084
905 3 12.8 38.4 3.2 -11.5436
876 2 17.6 36.8 4.8 -9.96488
907 3 16 38.4 3.2 -11.4551
878 3 20.8 36.8 4.8 -11.4609
909 1 19.2 38.4 3.2 -11.8558
880 3 24 36.8 4.8 -11.4909
911 1 22.4 38.4 3.2 -11.8275
913 1 25.6 38.4 3.2 -11.9283
882 3 27.2 36.8 4.8 -11.4906
915 1 28.8 38.4 3.2 -11.9031
884 3 30.4 36.8 4.8 -11.465
917 2 32 38.4 3.2 -9.93501
886 2 33.6 36.8 4.8 -10.0218
919 3 35.2 38.4 3.2 -11.3668
888 2 36.8 36.8 4.8 -9.92613
921 3 38.4 38.4 3.2 -11.5631
890 2 40 36.8 4.8 -9.96008
923 2 41.6 38.4 3.2 -9.91254
892 2 43.2 36.8 4.8 -9.97729
925 1 44.8 38.4 3.2 -11.87
894 3 46.4 36.8 4.8 -11.4965
927 2 48 38.4 3.2 -9.9598
896 3 49.6 36.8 4.8 -11.5299
898 3 1.6 40 4.8 -11.4354
929 2 0 41.6 3.2 -9.88228
900 1 4.8 40 4.8 -11.9442
931 2 3.2 41.6 3.2 -10.0372
902 1 8 40 4.8 -11.9613
933 3 6.4 41.6 3.2 -11.4314
904 3 11.2 40 4.8 -11.5867
935 3 9.6 41.6 3.2 -11.4937
906 3 14.4 40 4.8 -11.51
937 2 12.8 41.6 3.2 -9.99056
908 3 17.6 40 4.8 -11.473
939 3 16 41.6 3.2 -11.4648
910 2 20.8 40 4.8 -9.96201
941 2 19.2 41.6 3.2 -9.97999
912 2 24 40 4.8 -9.98319
943 2 22.4 41.6 3.2 -10.0018
945 3 25.6 41.6 3.2 -11.4814
914 3 27.2 40 4.8 -11.4847
947 3 28.8 41.6 3.2 -11.4675
916 3 30.4 40 4.8 -11.5604
949 1 32 41.6 3.2 -11.8457
918 2 33.6 40 4.8 -9.91212
951 1 35.2 41.6 3.2 -11.8279
920 2 36.8 40 4.8 -9.82959
953 2 38.4 41.6 3.2 -9.90787
922 2 40 40 4.8 -9.97507
955 1 41.6 41.6 3.2 -11.9262
924 3 43.2 40 4.8 -11.3861
957 1 44.8 41.6 3.2 -11.8618
926 3 46.4 40 4.8 -11.4418
959 2 48 41.6 3.2 -9.90252
928 2 49.6 40 4.8 -9.98215
930 2 1.6 43.2 4.8 -9.97015
961 1 0 44.8 3.2 -11.8228
932 3 4.8 43.2 4.8 -11.4973
963 3 3.2 44.8 3.2 -11.3902
934 1 8 43.2 4.8 -11.85
965 2 6.4 44.8 3.2 -9.94925
936 2 11.2 43.2 4.8 -9.88198
967 2 9.6 44.8 3.2 -9.90822
938 1 14.4 43.2 4.8 -11.819
969 2 12.8 44.8 3.2 -9.88147
940 1 17.6 43.2 4.8 -11.8559
971 2 16 44.8 3.2 -9.82569
942 3 20.8 43.2 4.8 -11.5171
973 2 19.2 44.8 3.2 -9.96637
944 2 24 43.2 4.8 -9.90643
975 3 22.4 44.8 3.2 -11.4864
977 2 25.6 44.8 3.2 -9.95489
946 1 27.2 43.2 4.8 -11.8905
979 2 28.8 44.8 3.2 -9.88494
948 3 30.4 43.2 4.8 -11.377
981 1 32 44.8 3.2 -11.8608
950 3 33.6 43.2 4.8 -11.2986
983 1 35.2 44.8 3.2 -11.9077
952 3 36.8 43.2 4.8 -11.354
985 2 38.4 44.8 3.2 -9.98647
954 3 40 43.2 4.8 -11.4942
987 2 41.6 44.8 3.2 -9.97133
956 3 43.2 43.2 4.8 -11.564
989 2 44.8 44.8 3.2 -9.98452
958 3 46.4 43.2 4.8 -11.5544
991 2 48 44.8 3.2 -9.89962
960 2 49.6 43.2 4.8 -9.9273
962 2 1.6 46.4 4.8 -9.94851
993 2 0 48 3.2 -9.80595
964 3 4.8 46.4 4.8 -11.4427
995 1 3.2 48 3.2 -11.8442
966 1 8 46.4 4.8 -11.8327
997 2 6.4 48 3.2 -9.93665
968 1 11.2 46.4 4.8 -11.8793
999 3 9.6 48 3.2 -11.3742
970 1 14.4 46.4 4.8 -11.767
1001 3 12.8 48 3.2 -11.3494
972 1 17.6 46.4 4.8 -11.7953
1003 2 16 48 3.2 -9.85873
974 2 20.8 46.4 4.8 -9.98705
1005 2 19.2 48 3.2 -9.99006
976 1 24 46.4 4.8 -11.9325
1007 3 22.4 48 3.2 -11.5304
1009 3 25.6 48 3.2 -11.5009
978 2 27.2 46.4 4.8 -9.86803
1011 2 28.8 48 3.2 -9.93342
980 2 30.4 46.4 4.8 -9.97288
1013 2 32 48 3.2 -9.97893
982 2 33.6 46.4 4.8 -9.92773
1015 3 35.2 48 3.2 -11.5296
984 3 36.8 46.4 4.8 -11.4716
1017 3 38.4 48 3.2 -11.5799
986 2 40 46.4 4.8 -10.003
1019 3 41.6 48 3.2 -11.5284
988 3 43.2 46.4 4.8 -11.5893
1021 2 44.8 48 3.2 -9.93925
990 3 46.4 46.4 4.8 -11.5604
1023 1 48 48 3.2 -11.864
992 2 49.6 46.4 4.8 -9.95905
994 2 1.6 49.6 4.8 -9.92149
996 2 4.8 49.6 4.8 -9.97037
998 2 8 49.6 4.8 -9.84337
1000 1 11.2 49.6 4.8 -11.9192
1002 1 14.4 49.6 4.8 -11.8587
1004 2 17.6 49.6 4.8 -9.926
1006 2 20.8 49.6 4.8 -9.97752
1008 1 24 49.6 4.8 -11.9051
1010 2 27.2 49.6 4.8 -9.99591
1012 3 30.4 49.6 4.8 -11.4365
1014 2 33.6 49.6 4.8 -9.95183
1016 1 36.8 49.6 4.8 -11.901
1018 3 40 49.6 4.8 -11.4913
1020 3 43.2 49.6 4.8 -11.5338
1022 2 46.4 49.6 4.8 -9.93006
1024 2 49.6 49.6 4.8 -9.94945
1025 3 0 0 6.4 -11.4323
1026 2 1.6 1.6 8 -9.99667
1027 2 3.2 0 6.4 -9.97074
1028 2 4.8 1.6 8 -9.92703
1029 3 6.4 0 6.4 -11.4015
1030 1 8 1.6 8 -11.8925
1031 3 9.6 0 6.4 -11.4188
1032 3 11.2 1.6 8 -11.4041
1033 3 12.8 0 6.4 -11.4195
1034 1 14.4 1.6 8 -11.902
1035 3 16 0 6.4 -11.471
1036 3 17.6 1.6 8 -11.452
1037 3 19.2 0 6.4 -11.5779
1038 3 20.8 1.6 8 -11.5438
1039 3 22.4 0 6.4 -11.4985
1040 2 24 1.6 8 -9.87388
1041 3 25.6 0 6.4 -11.4699
1042 1 27.2 1.6 8 -11.9103
1043 2 28.8 0 6.4 -9.98027
1044 2 30.4 1.6 8 -9.94664
1045 2 32 0 6.4 -9.97119
1046 2 33.6 1.6 8 -9.96944
1047 2 35.2 0 6.4 -9.94269
1048 2 36.8 1.6 8 -9.93359
1049 1 38.4 0 6.4 -11.8335
1050 2 40 1.6 8 -9.8191
1051 2 41.6 0 6.4 -9.95849
1052 1 43.2 1.6 8 -11.8753
1053 2 44.8 0 6.4 -9.92743
1054 1 46.4 1.6 8 -11.8438
1055 3 48 0 6.4 -11.4395
1056 2 49.6 1.6 8 -9.94392
1057 3 0 3.2 6.4 -11.4765
1058 3 1.6 4.8 8 -11.4244
1059 1 3.2 3.2 6.4 -11.9126
1060 3 4.8 4.8 8 -11.4778
1061 3 6.4 3.2 6.4 -11.4251
1062 3 8 4.8 8 -11.4279
1063 3 9.6 3.2 6.4 -11.4557
1064 2 11.2 4.8 8 -9.95345
1065 3 12.8 3.2 6.4 -11.4431
1066 2 14.4 4.8 8 -9.87149
1067 3 16 3.2 6.4 -11.4201
1068 1 17.6 4.8 8 -11.8253
1069 3 19.2 3.2 6.4 -11.4822
1070 1 20.8 4.8 8 -11.9312
1071 3 22.4 3.2 6.4 -11.5462
1072 3 24 4.8 8 -11.4994
1073 3 25.6 3.2 6.4 -11.5447
1074 3 27.2 4.8 8 -11.4194
1075 3 28.8 3.2 6.4 -11.5507
1076 2 30.4 4.8 8 -9.93009
1077 2 32 3.2 6.4 -9.9154
1078 2 33.6 4.8 8 -9.95313
1079 3 35.2 3.2 6.4 -11.5237
1080 2 36.8 4.8 8 -9.94216
1081 2 38.4 3.2 6.4 -9.9527
1082 1 40 4.8 8 -11.902
1083 2 41.6 3.2 6.4 -9.96998
1084 2 43.2 4.8 8 -9.92945
1085 3 44.8 3.2 6.4 -11.4014
1086 2 46.4 4.8 8 -9.92893
1087 2 48 3.2 6.4 -9.96996
1088 1 49.6 4.8 8 -11.8552
1089 2 0 6.4 6.4 -9.97252
1090 2 1.6 8 8 -9.94013
1091 1 3.2 6.4 6.4 -11.8355
1092 2 4.8 8 8 -9.91506
1093 2 6.4 6.4 6.4 -9.86929
1094 2 8 8 8 -9.88349
1095 1 9.6 6.4 6.4 -11.8048
1096 1 11.2 8 8 -11.7882
1097 2 12.8 6.4 6.4 -9.93404
1098 2 14.4 8 8 -9.87229
1099 3 16 6.4 6.4 -11.3816
1100 1 17.6 8 8 -11.8096
1101 3 19.2 6.4 6.4 -11.3731
1102 2 20.8 8 8 -9.88848
1103 3 22.4 6.4 6.4 -11.4226