ITEM: TIMESTEP
0
ITEM: NUMBER OF ATOMS
8192
ITEM: BOX BOUNDS pp pp pp
0.0000000000000000e+00 5.1200000000000003e+01
0.0000000000000000e+00 5.1200000000000003e+01
0.0000000000000000e+00 5.1200000000000003e+01
ITEM: ATOMS id type x y z c_eng
1 3 0 0 0 -10.993
2 1 1.6 1.6 1.6 -11.8417
3 3 3.2 0 0 -10.8471
4 1 4.8 1.6 1.6 -11.6296
5 1 6.4 0 0 -11.2797
6 1 8 1.6 1.6 -11.3287
7 1 9.6 0 0 -11.5623
8 3 11.2 1.6 1.6 -11.1267
9 1 12.8 0 0 -11.8417
10 3 14.4 1.6 1.6 -11.0822
11 1 16 0 0 -11.7451
12 1 17.6 1.6 1.6 -11.1781
13 1 19.2 0 0 -11.5248
14 1 20.8 1.6 1.6 -11.2289
15 1 22.4 0 0 -11.5089
16 1 24 1.6 1.6 -11.4419
17 1 25.6 0 0 -11.4267
18 1 27.2 1.6 1.6 -11.3546
19 2 28.8 0 0 -9.4633
20 2 30.4 1.6 1.6 -9.55995
21 1 32 0 0 -11.463
22 3 33.6 1.6 1.6 -11.0381
23 1 35.2 0 0 -11.4956
24 3 36.8 1.6 1.6 -11.2057
25 1 38.4 0 0 -11.6803
26 2 40 1.6 1.6 -9.70717
27 1 41.6 0 0 -11.5424
28 3 43.2 1.6 1.6 -10.9001
29 1 44.8 0 0 -11.339
30 1 46.4 1.6 1.6 -11.5081
31 3 48 0 0 -11.0838
32 1 49.6 1.6 1.6 -11.8417
33 3 0 3.2 0 -11.2432
34 1 1.6 4.8 1.6 -11.8417
35 3 3.2 3.2 0 -11.1244
36 1 4.8 4.8 1.6 -11.8417
37 3 6.4 3.2 0 -11.0867
38 1 8 4.8 1.6 -11.5081
39 1 9.6 3.2 0 -11.5475
40 3 11.2 4.8 1.6 -10.9454
41 1 12.8 3.2 0 -11.812
42 3 14.4 4.8 1.6 -11.2044
43 1 16 3.2 0 -11.6644
44 1 17.6 4.8 1.6 -11.229
45 1 19.2 3.2 0 -11.3944
46 1 20.8 4.8 1.6 -11.2571
47 1 22.4 3.2 0 -11.4737
48 1 24 4.8 1.6 -11.3108
49 1 25.6 3.2 0 -11.4081
50 1 27.2 4.8 1.6 -11.2262
51 1 28.8 3.2 0 -11.5491
52 3 30.4 4.8 1.6 -11.0833
53 1 32 3.2 0 -11.6509
54 3 33.6 4.8 1.6 -11.1238
55 1 35.2 3.2 0 -11.7096
56 3 36.8 4.8 1.6 -11.0819
57 1 38.4 3.2 0 -11.7811
58 2 40 4.8 1.6 -9.62121
59 1 41.6 3.2 0 -11.7532
60 3 43.2 4.8 1.6 -11.0437
61 1 44.8 3.2 0 -11.4766
62 1 46.4 4.8 1.6 -11.5077
63 3 48 3.2 0 -11.1261
64 1 49.6 4.8 1.6 -11.8417
65 3 0 6.4 0 -11.242
66 1 1.6 8 1.6 -11.7451
67 3 3.2 6.4 0 -11.2054
68 1 4.8 8 1.6 -11.6824
69 3 6.4 6.4 0 -11.0827
70 1 8 8 1.6 -11.3271
71 1 9.6 6.4 0 -11.3219
72 1 11.2 8 1.6 -11.2873
73 1 12.8 6.4 0 -11.5756
74 3 14.4 8 1.6 -11.1385
75 2 16 6.4 0 -9.68542
76 1 17.6 8 1.6 -11.4582
77 1 19.2 6.4 0 -11.4467
78 3 20.8 8 1.6 -10.8996
79 1 22.4 6.4 0 -11.5733
80 2 24 8 1.6 -9.57944
81 1 25.6 6.4 0 -11.5313
82 2 27.2 8 1.6 -9.50514
83 1 28.8 6.4 0 -11.6753
84 3 30.4 8 1.6 -11.2051
85 1 32 6.4 0 -11.7451
86 3 33.6 8 1.6 -11.1235
87 1 35.2 6.4 0 -11.6445
88 1 36.8 8 1.6 -11.3429
89 1 38.4 6.4 0 -11.4974
90 1 40 8 1.6 -11.1741
91 1 41.6 6.4 0 -11.5981
92 3 43.2 8 1.6 -11.0065
93 1 44.8 6.4 0 -11.5077
94 1 46.4 8 1.6 -11.4766
95 3 48 6.4 0 -11.083
96 1 49.6 8 1.6 -11.8124
97 3 0 9.6 0 -11.206
98 1 1.6 11.2 1.6 -11.7451
99 3 3.2 9.6 0 -11.081
100 1 4.8 11.2 1.6 -11.4708
101 2 6.4 9.6 0 -9.50608
102 1 8 11.2 1.6 -11.2633
103 1 9.6 9.6 0 -11.2152
104 3 11.2 11.2 1.6 -10.8464
105 1 12.8 9.6 0 -11.4078
106 3 14.4 11.2 1.6 -11.1088
107 2 16 9.6 0 -9.69577
108 1 17.6 11.2 1.6 -11.3834
109 1 19.2 9.6 0 -11.4066
110 3 20.8 11.2 1.6 -11.0838
111 1 22.4 9.6 0 -11.7532
112 3 24 11.2 1.6 -11.2042
113 1 25.6 9.6 0 -11.7811
114 3 27.2 11.2 1.6 -11.2048
115 1 28.8 9.6 0 -11.8124
116 3 30.4 11.2 1.6 -11.2036
117 1 32 9.6 0 -11.8417
118 3 33.6 11.2 1.6 -11.2426
119 1 35.2 9.6 0 -11.7451
120 3 36.8 11.2 1.6 -11.081
121 1 38.4 9.6 0 -11.4608
122 2 40 11.2 1.6 -9.61417
123 1 41.6 9.6 0 -11.5632
124 3 43.2 11.2 1.6 -11.0435
125 1 44.8 9.6 0 -11.4721
126 1 46.4 11.2 1.6 -11.3631
127 2 48 9.6 0 -9.54474
128 1 49.6 11.2 1.6 -11.7096
129 3 0 12.8 0 -10.9917
130 1 1.6 14.4 1.6 -11.8414
131 3 3.2 12.8 0 -11.1261
132 1 4.8 14.4 1.6 -11.4733
133 1 6.4 12.8 0 -11.2605
134 2 8 14.4 1.6 -9.42549
135 1 9.6 12.8 0 -11.4106
136 3 11.2 14.4 1.6 -11.1288
137 1 12.8 12.8 0 -11.5669
138 2 14.4 14.4 1.6 -9.53608
139 2 16 12.8 0 -9.58467
140 1 17.6 14.4 1.6 -11.3105
141 1 19.2 12.8 0 -11.491
142 3 20.8 14.4 1.6 -11.0819
143 1 22.4 12.8 0 -11.7811
144 3 24 14.4 1.6 -11.2435
145 1 25.6 12.8 0 -11.8417
146 3 27.2 14.4 1.6 -11.0822
147 1 28.8 12.8 0 -11.8124
148 2 30.4 14.4 1.6 -9.64769
149 1 32 12.8 0 -11.8124
150 3 33.6 14.4 1.6 -11.0825
151 1 35.2 12.8 0 -11.8417
152 3 36.8 14.4 1.6 -11.2051
153 1 38.4 12.8 0 -11.7511
154 3 40 14.4 1.6 -11.0812
155 1 41.6 12.8 0 -11.7245
156 2 43.2 14.4 1.6 -9.64745
157 1 44.8 12.8 0 -11.4906
158 1 46.4 14.4 1.6 -11.284
159 1 48 12.8 0 -11.3186
160 1 49.6 14.4 1.6 -11.5227
161 3 0 16 0 -11.0438
162 1 1.6 17.6 1.6 -11.5333
163 3 3.2 16 0 -10.9938
164 1 4.8 17.6 1.6 -11.2698
165 1 6.4 16 0 -11.4133
166 3 8 17.6 1.6 -10.9951
167 1 9.6 16 0 -11.6409
168 3 11.2 17.6 1.6 -11.1241
169 1 12.8 16 0 -11.6744
170 3 14.4 17.6 1.6 -11.2071
171 1 16 16 0 -11.6342
172 3 17.6 17.6 1.6 -11.1238
173 1 19.2 16 0 -11.6819
174 3 20.8 17.6 1.6 -11.2435
175 1 22.4 16 0 -11.8124
176 3 24 17.6 1.6 -10.9928
177 1 25.6 16 0 -11.6293
178 1 27.2 17.6 1.6 -11.3764
179 1 28.8 16 0 -11.4796
180 1 30.4 17.6 1.6 -11.3271
181 1 32 16 0 -11.3625
182 1 33.6 17.6 1.6 -11.2471
183 1 35.2 16 0 -11.5976
184 2 36.8 17.6 1.6 -9.60053
185 1 38.4 16 0 -11.7532
186 2 40 17.6 1.6 -9.67769
187 1 41.6 16 0 -11.7583
188 3 43.2 17.6 1.6 -11.1248
189 1 44.8 16 0 -11.6753
190 2 46.4 17.6 1.6 -9.54409
191 1 48 16 0 -11.4411
192 1 49.6 17.6 1.6 -11.4177
193 1 0 19.2 0 -11.4129
194 2 1.6 20.8 1.6 -9.4449
195 1 3.2 19.2 0 -11.2616
196 1 4.8 20.8 1.6 -11.2228
197 1 6.4 19.2 0 -11.292
198 2 8 20.8 1.6 -9.61477
199 1 9.6 19.2 0 -11.7511
200 3 11.2 20.8 1.6 -11.1654
201 1 12.8 19.2 0 -11.8124
202 3 14.4 20.8 1.6 -11.1642
203 1 16 19.2 0 -11.8124
204 3 17.6 20.8 1.6 -11.2039
205 1 19.2 19.2 0 -11.8417
206 3 20.8 20.8 1.6 -11.2429
207 1 22.4 19.2 0 -11.8417
208 3 24 20.8 1.6 -10.9465
209 1 25.6 19.2 0 -11.5089
210 1 27.2 20.8 1.6 -11.5089
211 3 28.8 19.2 0 -10.8061
212 1 30.4 20.8 1.6 -11.7096
213 1 32 19.2 0 -11.2202
214 1 33.6 20.8 1.6 -11.5307
215 1 35.2 19.2 0 -11.2587
216 1 36.8 20.8 1.6 -11.4784
217 1 38.4 19.2 0 -11.5578
218 2 40 20.8 1.6 -9.4441
219 1 41.6 19.2 0 -11.7508
220 3 43.2 20.8 1.6 -11.0847
221 1 44.8 19.2 0 -11.8124
222 3 46.4 20.8 1.6 -11.0435
223 1 48 19.2 0 -11.6105
224 2 49.6 20.8 1.6 -9.48852
225 1 0 22.4 0 -11.3828
226 2 1.6 24 1.6 -9.63865
227 2 3.2 22.4 0 -9.49238
228 1 4.8 24 1.6 -11.4216
229 1 6.4 22.4 0 -11.4086
230 3 8 24 1.6 -10.9436
231 1 9.6 22.4 0 -11.7811
232 3 11.2 24 1.6 -11.2054
233 1 12.8 22.4 0 -11.7846
234 2 14.4 24 1.6 -9.70706
235 1 16 22.4 0 -11.7532
236 2 17.6 24 1.6 -9.61417
237 1 19.2 22.4 0 -11.8124
238 3 20.8 24 1.6 -11.0409
239 1 22.4 22.4 0 -11.7808
240 2 24 24 1.6 -9.56885
241 1 25.6 22.4 0 -11.4932
242 1 27.2 24 1.6 -11.6205
243 3 28.8 22.4 0 -11.0836
244 1 30.4 24 1.6 -11.8417
245 3 32 22.4 0 -11.0816
246 1 33.6 24 1.6 -11.7846
247 2 35.2 22.4 0 -9.57993
248 1 36.8 24 1.6 -11.6579
249 2 38.4 22.4 0 -9.531
250 1 40 24 1.6 -11.5226
251 1 41.6 22.4 0 -11.4932
252 1 43.2 24 1.6 -11.477
253 1 44.8 22.4 0 -11.5073
254 1 46.4 24 1.6 -11.5069
255 1 48 22.4 0 -11.4428
256 1 49.6 24 1.6 -11.4443
257 2 0 25.6 0 -9.61116
259 3 3.2 25.6 0 -11.0678
261 1 6.4 25.6 0 -11.6151
263 1 9.6 25.6 0 -11.8124
265 1 12.8 25.6 0 -11.7831
267 1 16 25.6 0 -11.5686
269 1 19.2 25.6 0 -11.4414
271 1 22.4 25.6 0 -11.4937
273 2 25.6 25.6 0 -9.56741
275 3 28.8 25.6 0 -11.2057
277 3 32 25.6 0 -11.242
279 3 35.2 25.6 0 -11.1648
281 3 38.4 25.6 0 -11.2063
283 3 41.6 25.6 0 -11.0825
285 3 44.8 25.6 0 -11.1264
287 3 48 25.6 0 -11.044
258 2 1.6 27.2 1.6 -9.46772
289 1 0 28.8 0 -11.289
260 3 4.8 27.2 1.6 -11.088
291 1 3.2 28.8 0 -11.4082
262 3 8 27.2 1.6 -11.2455
293 1 6.4 28.8 0 -11.7091
264 3 11.2 27.2 1.6 -11.0381
295 1 9.6 28.8 0 -11.6824
266 3 14.4 27.2 1.6 -11.1242
297 1 12.8 28.8 0 -11.6474
268 1 17.6 27.2 1.6 -11.3758
299 1 16 28.8 0 -11.4895
270 1 20.8 27.2 1.6 -11.4477
301 2 19.2 28.8 0 -9.54548
272 1 24 27.2 1.6 -11.5888
303 3 22.4 28.8 0 -11.0378
305 3 25.6 28.8 0 -11.206
274 1 27.2 27.2 1.6 -11.7808
307 3 28.8 28.8 0 -11.242
276 1 30.4 27.2 1.6 -11.8417
309 3 32 28.8 0 -11.2429
278 1 33.6 27.2 1.6 -11.7808
311 3 35.2 28.8 0 -11.1661
280 1 36.8 27.2 1.6 -11.7811
313 3 38.4 28.8 0 -11.2429
282 1 40 27.2 1.6 -11.8124
315 3 41.6 28.8 0 -11.242
284 1 43.2 27.2 1.6 -11.8124
317 3 44.8 28.8 0 -11.2033
286 1 46.4 27.2 1.6 -11.8124
319 2 48 28.8 0 -9.64685
288 1 49.6 27.2 1.6 -11.5196
290 1 1.6 30.4 1.6 -11.3479
321 3 0 32 0 -10.9941
292 3 4.8 30.4 1.6 -10.9944
323 1 3.2 32 0 -11.4468
294 3 8 30.4 1.6 -11.1253
325 1 6.4 32 0 -11.7846
296 1 11.2 30.4 1.6 -11.316
327 1 9.6 32 0 -11.7096
298 2 14.4 30.4 1.6 -9.56971
329 1 12.8 32 0 -11.6478
300 1 17.6 30.4 1.6 -11.4856
331 1 16 32 0 -11.4438
302 1 20.8 30.4 1.6 -11.7583
333 3 19.2 32 0 -10.9006
304 1 24 30.4 1.6 -11.8124
335 3 22.4 32 0 -11.2065
337 3 25.6 32 0 -11.1651
306 1 27.2 30.4 1.6 -11.8122
339 3 28.8 32 0 -11.1663
308 1 30.4 30.4 1.6 -11.7093
341 3 32 32 0 -11.0822
310 1 33.6 30.4 1.6 -11.6511
343 3 35.2 32 0 -11.083
312 1 36.8 30.4 1.6 -11.7087
345 3 38.4 32 0 -11.1246
314 1 40 30.4 1.6 -11.8122
347 3 41.6 32 0 -11.2051
316 1 43.2 30.4 1.6 -11.8124
349 3 44.8 32 0 -11.2423
318 1 46.4 30.4 1.6 -11.8124
351 3 48 32 0 -11.206
320 1 49.6 30.4 1.6 -11.5976
322 1 1.6 33.6 1.6 -11.5867
353 3 0 35.2 0 -11.1267
324 2 4.8 33.6 1.6 -9.5711
355 1 3.2 35.2 0 -11.4521
326 3 8 33.6 1.6 -11.083
357 1 6.4 35.2 0 -11.7091
328 3 11.2 33.6 1.6 -10.9449
359 1 9.6 35.2 0 -11.8124
330 2 14.4 33.6 1.6 -9.5062
361 1 12.8 35.2 0 -11.7831
332 1 17.6 33.6 1.6 -11.3063
363 1 16 35.2 0 -11.5649
334 1 20.8 33.6 1.6 -11.5643
365 1 19.2 35.2 0 -11.3942
336 1 24 33.6 1.6 -11.7508
367 2 22.4 35.2 0 -9.48837
369 2 25.6 35.2 0 -9.50995
338 1 27.2 33.6 1.6 -11.656
371 2 28.8 35.2 0 -9.46844
340 1 30.4 33.6 1.6 -11.4161
373 2 32 35.2 0 -9.56012
342 1 33.6 33.6 1.6 -11.4955
375 2 35.2 35.2 0 -9.59714
344 1 36.8 33.6 1.6 -11.5844
377 3 38.4 35.2 0 -10.9457
346 1 40 33.6 1.6 -11.6506
379 3 41.6 35.2 0 -11.0827
348 1 43.2 33.6 1.6 -11.7093
381 3 44.8 35.2 0 -11.2071
350 1 46.4 33.6 1.6 -11.7451
383 3 48 35.2 0 -11.0019
352 1 49.6 33.6 1.6 -11.7451
354 1 1.6 36.8 1.6 -11.5962
385 3 0 38.4 0 -11.1264
356 1 4.8 36.8 1.6 -11.386
387 1 3.2 38.4 0 -11.3442
358 3 8 36.8 1.6 -11.1261
389 1 6.4 38.4 0 -11.6296
360 3 11.2 36.8 1.6 -11.1251
391 1 9.6 38.4 0 -11.7846
362 3 14.4 36.8 1.6 -11.2065
393 1 12.8 38.4 0 -11.7846
364 3 17.6 36.8 1.6 -10.898
395 1 16 38.4 0 -11.8124
366 1 20.8 36.8 1.6 -11.3865
397 1 19.2 38.4 0 -11.5686
368 1 24 36.8 1.6 -11.3821
399 1 22.4 38.4 0 -11.3528
401 1 25.6 38.4 0 -11.3282
370 1 27.2 36.8 1.6 -11.285
403 1 28.8 38.4 0 -11.3695
372 1 30.4 36.8 1.6 -11.3535
405 1 32 38.4 0 -11.4267
374 2 33.6 36.8 1.6 -9.50092
407 1 35.2 38.4 0 -11.2946
376 1 36.8 36.8 1.6 -11.2939
409 1 38.4 38.4 0 -11.252
378 1 40 36.8 1.6 -11.3932
411 2 41.6 38.4 0 -9.63152
380 1 43.2 36.8 1.6 -11.4952
413 3 44.8 38.4 0 -10.9436
382 1 46.4 36.8 1.6 -11.6184
415 3 48 38.4 0 -11.2077
384 1 49.6 36.8 1.6 -11.7096
386 1 1.6 40 1.6 -11.5181
417 3 0 41.6 0 -10.9464
388 1 4.8 40 1.6 -11.3485
419 1 3.2 41.6 0 -11.3653
390 3 8 40 1.6 -11.0852
421 1 6.4 41.6 0 -11.7096
392 2 11.2 40 1.6 -9.67724
423 1 9.6 41.6 0 -11.7811
394 3 14.4 40 1.6 -11.2051
425 1 12.8 41.6 0 -11.7811
396 3 17.6 40 1.6 -10.9933
427 1 16 41.6 0 -11.8417
398 1 20.8 40 1.6 -11.3384
429 1 19.2 41.6 0 -11.5973
400 1 24 40 1.6 -11.3051
431 1 22.4 41.6 0 -11.45
433 1 25.6 41.6 0 -11.5641
402 3 27.2 40 1.6 -10.9514
435 1 28.8 41.6 0 -11.6588
404 3 30.4 40 1.6 -10.9936
437 1 32 41.6 0 -11.4359
406 3 33.6 40 1.6 -10.8978
439 1 35.2 41.6 0 -11.384
408 1 36.8 40 1.6 -11.2207
441 1 38.4 41.6 0 -11.4797
410 2 40 40 1.6 -9.49091
443 3 41.6 41.6 0 -10.9411
412 1 43.2 40 1.6 -11.3883
445 1 44.8 41.6 0 -11.3787
414 1 46.4 40 1.6 -11.4863
447 3 48 41.6 0 -10.9919
416 1 49.6 40 1.6 -11.7087
418 1 1.6 43.2 1.6 -11.5257
449 2 0 44.8 0 -9.6041
420 2 4.8 43.2 1.6 -9.5128
451 1 3.2 44.8 0 -11.5595
422 3 8 43.2 1.6 -11.1673
453 1 6.4 44.8 0 -11.7511
424 2 11.2 43.2 1.6 -9.61366
455 1 9.6 44.8 0 -11.8124
426 3 14.4 43.2 1.6 -11.1666
457 1 12.8 44.8 0 -11.8124
428 3 17.6 43.2 1.6 -10.9936
459 1 16 44.8 0 -11.8417
430 1 20.8 43.2 1.6 -11.3954
461 1 19.2 44.8 0 -11.6746
432 1 24 43.2 1.6 -11.3424
463 1 22.4 44.8 0 -11.5498
465 1 25.6 44.8 0 -11.5089
434 2 27.2 43.2 1.6 -9.65764
467 3 28.8 44.8 0 -11.1399
436 3 30.4 43.2 1.6 -11.1546
469 3 32 44.8 0 -11.1188
438 2 33.6 43.2 1.6 -9.7367
471 2 35.2 44.8 0 -9.65774
440 3 36.8 43.2 1.6 -11.1399
473 2 38.4 44.8 0 -9.61609
442 2 40 43.2 1.6 -9.67389
475 2 41.6 44.8 0 -9.55637
444 1 43.2 43.2 1.6 -11.4227
477 3 44.8 44.8 0 -10.9452
446 1 46.4 43.2 1.6 -11.4535
479 3 48 44.8 0 -11.1683
448 1 49.6 43.2 1.6 -11.6497
450 3 1.6 46.4 1.6 -10.8912
481 1 0 48 0 -11.3817
452 2 4.8 46.4 1.6 -9.58749
483 1 3.2 48 0 -11.4108
454 3 8 46.4 1.6 -11.0833
485 1 6.4 48 0 -11.4191
456 3 11.2 46.4 1.6 -11.083
487 1 9.6 48 0 -11.7096
458 3 14.4 46.4 1.6 -11.1256
489 1 12.8 48 0 -11.8417
460 3 17.6 46.4 1.6 -11.0847
491 1 16 48 0 -11.8417
462 2 20.8 46.4 1.6 -9.57546
493 1 19.2 48 0 -11.7091
464 1 24 46.4 1.6 -11.4036
495 1 22.4 48 0 -11.5818
497 1 25.6 48 0 -11.4195
466 1 27.2 46.4 1.6 -11.3632
499 3 28.8 48 0 -10.9894
468 1 30.4 46.4 1.6 -11.5659
501 3 32 48 0 -10.8468
470 1 33.6 46.4 1.6 -11.3881
503 1 35.2 48 0 -11.3995
472 3 36.8 46.4 1.6 -11.0356
505 1 38.4 48 0 -11.5297
474 1 40 46.4 1.6 -11.3274
507 1 41.6 48 0 -11.3911
476 1 43.2 46.4 1.6 -11.3631
509 3 44.8 48 0 -10.8452
478 1 46.4 46.4 1.6 -11.6738
511 3 48 48 0 -11.1267
480 1 49.6 46.4 1.6 -11.6181
482 1 1.6 49.6 1.6 -11.5097
484 1 4.8 49.6 1.6 -11.2344
486 1 8 49.6 1.6 -11.147
488 3 11.2 49.6 1.6 -10.993
490 3 14.4 49.6 1.6 -11.1261
492 3 17.6 49.6 1.6 -10.8452
494 1 20.8 49.6 1.6 -11.4284
496 1 24 49.6 1.6 -11.477
498 1 27.2 49.6 1.6 -11.353
500 1 30.4 49.6 1.6 -11.4251
502 1 33.6 49.6 1.6 -11.3469
504 3 36.8 49.6 1.6 -10.9933
506 3 40 49.6 1.6 -10.8997
508 1 43.2 49.6 1.6 -11.3482
510 1 46.4 49.6 1.6 -11.5706
512 1 49.6 49.6 1.6 -11.6289
513 3 0 0 3.2 -11.1253
514 1 1.6 1.6 4.8 -11.8417
515 3 3.2 0 3.2 -10.9936
516 1 4.8 1.6 4.8 -11.7451
517 1 6.4 0 3.2 -11.179
518 1 8 1.6 4.8 -11.5038
519 1 9.6 0 3.2 -11.3789
520 3 11.2 1.6 4.8 -11.0744
521 1 12.8 0 3.2 -11.6736
522 2 14.4 1.6 4.8 -9.6339
523 1 16 0 3.2 -11.4427
524 1 17.6 1.6 4.8 -11.3424
525 1 19.2 0 3.2 -11.2166
526 1 20.8 1.6 4.8 -11.6031
527 3 22.4 0 3.2 -10.9472
528 1 24 1.6 4.8 -11.7566
529 3 25.6 0 3.2 -10.8504
530 1 27.2 1.6 4.8 -11.3714
531 1 28.8 0 3.2 -11.3953
532 2 30.4 1.6 4.8 -9.61489
533 1 32 0 3.2 -11.5683
534 3 33.6 1.6 4.8 -11.2048
535 1 35.2 0 3.2 -11.7451
536 3 36.8 1.6 4.8 -11.2045
537 1 38.4 0 3.2 -11.8124
538 3 40 1.6 4.8 -11.0855
539 1 41.6 0 3.2 -11.7203
540 3 43.2 1.6 4.8 -10.9467
541 1 44.8 0 3.2 -11.471
542 1 46.4 1.6 4.8 -11.5244
543 3 48 0 3.2 -11.1668
544 1 49.6 1.6 4.8 -11.8122
545 3 0 3.2 3.2 -11.2414
546 1 1.6 4.8 4.8 -11.8417
547 3 3.2 3.2 3.2 -11.2423
548 1 4.8 4.8 4.8 -11.8417
549 3 6.4 3.2 3.2 -10.9936
550 1 8 4.8 4.8 -11.5085
551 1 9.6 3.2 3.2 -11.5073
552 3 11.2 4.8 4.8 -10.9961
553 1 12.8 3.2 3.2 -11.8121
554 3 14.4 4.8 4.8 -11.04
555 1 16 3.2 3.2 -11.45
556 2 17.6 4.8 4.8 -9.54077
557 1 19.2 3.2 3.2 -11.218
558 2 20.8 4.8 4.8 -9.66781
559 2 22.4 3.2 3.2 -9.54959
560 2 24 4.8 4.8 -9.67974
561 2 25.6 3.2 3.2 -9.439
562 1 27.2 4.8 4.8 -11.2383
563 1 28.8 3.2 3.2 -11.4081
564 3 30.4 4.8 4.8 -11.0833
565 1 32 3.2 3.2 -11.7811
566 3 33.6 4.8 4.8 -11.2429
567 1 35.2 3.2 3.2 -11.8417
568 3 36.8 4.8 4.8 -11.2054
569 1 38.4 3.2 3.2 -11.7811
570 3 40 4.8 4.8 -11.084
571 1 41.6 3.2 3.2 -11.7532
572 2 43.2 4.8 4.8 -9.54524
573 1 44.8 3.2 3.2 -11.4766
574 1 46.4 4.8 4.8 -11.4721
575 3 48 3.2 3.2 -11.1261
576 1 49.6 4.8 4.8 -11.8417
577 3 0 6.4 3.2 -11.2423
578 1 1.6 8 4.8 -11.7451
579 3 3.2 6.4 3.2 -11.1226
580 1 4.8 8 4.8 -11.7096
581 3 6.4 6.4 3.2 -11.0841
582 1 8 8 4.8 -11.4779
583 1 9.6 6.4 3.2 -11.4057
584 3 11.2 8 4.8 -10.8592
585 1 12.8 6.4 3.2 -11.7443
586 3 14.4 8 4.8 -11.1143
587 1 16 6.4 3.2 -11.6911
588 3 17.6 8 4.8 -11.043
589 1 19.2 6.4 3.2 -11.457
590 3 20.8 8 4.8 -11.1691
591 1 22.4 6.4 3.2 -11.5582
592 2 24 8 4.8 -9.57944
593 1 25.6 6.4 3.2 -11.3344
594 1 27.2 8 4.8 -11.3135
595 1 28.8 6.4 3.2 -11.4844
596 3 30.4 8 4.8 -11.1244
597 1 32 6.4 3.2 -11.8417
598 3 33.6 8 4.8 -11.0804
599 1 35.2 6.4 3.2 -11.7096
600 2 36.8 8 4.8 -9.61391
601 1 38.4 6.4 3.2 -11.532
602 2 40 8 4.8 -9.58652
603 1 41.6 6.4 3.2 -11.648
604 3 43.2 8 4.8 -10.9978
605 1 44.8 6.4 3.2 -11.4766
606 1 46.4 8 4.8 -11.5081
607 3 48 6.4 3.2 -11.1261
608 1 49.6 8 4.8 -11.8417
609 3 0 9.6 3.2 -11.1226
610 1 1.6 11.2 4.8 -11.7203
611 1 3.2 9.6 3.2 -11.4321
612 1 4.8 11.2 4.8 -11.4713
613 2 6.4 9.6 3.2 -9.40432
614 1 8 11.2 4.8 -11.4107
615 1 9.6 9.6 3.2 -11.3705
616 3 11.2 11.2 4.8 -11.0062
617 1 12.8 9.6 3.2 -11.6921
618 1 14.4 11.2 4.8 -11.4071
619 3 16 9.6 3.2 -11.0279
620 1 17.6 11.2 4.8 -11.336
621 1 19.2 9.6 3.2 -11.6161
622 3 20.8 11.2 4.8 -10.9938
623 1 22.4 9.6 3.2 -11.7811
624 3 24 11.2 4.8 -11.0824
625 1 25.6 9.6 3.2 -11.6454
626 3 27.2 11.2 4.8 -11.1238
627 1 28.8 9.6 3.2 -11.7096
628 3 30.4 11.2 4.8 -11.2426
629 1 32 9.6 3.2 -11.8417
630 3 33.6 11.2 4.8 -11.2426
631 1 35.2 9.6 3.2 -11.7096
632 3 36.8 11.2 4.8 -11.2051
633 1 38.4 9.6 3.2 -11.532
634 3 40 11.2 4.8 -11.1251
635 1 41.6 9.6 3.2 -11.6753
636 3 43.2 11.2 4.8 -11.1273
637 1 44.8 9.6 3.2 -11.5077
638 1 46.4 11.2 4.8 -11.5073
639 3 48 9.6 3.2 -11.0838
640 1 49.6 11.2 4.8 -11.8417
641 3 0 12.8 3.2 -11.2444
642 1 1.6 14.4 4.8 -11.7597
643 3 3.2 12.8 3.2 -10.9449
644 1 4.8 14.4 4.8 -11.4246
645 1 6.4 12.8 3.2 -11.3057
646 3 8 14.4 4.8 -10.9457
647 1 9.6 12.8 3.2 -11.5976
648 3 11.2 14.4 4.8 -10.9925
649 1 12.8 12.8 3.2 -11.5962
650 1 14.4 14.4 4.8 -11.2612
651 1 16 12.8 3.2 -11.3334
652 1 17.6 14.4 4.8 -11.1942
653 1 19.2 12.8 3.2 -11.393
654 3 20.8 14.4 4.8 -10.9951
655 1 22.4 12.8 3.2 -11.8417
656 3 24 14.4 4.8 -10.9928
657 1 25.6 12.8 3.2 -11.8417
658 3 27.2 14.4 4.8 -11.127
659 1 28.8 12.8 3.2 -11.8124
660 3 30.4 14.4 4.8 -11.083
661 1 32 12.8 3.2 -11.8124
662 3 33.6 14.4 4.8 -11.1253
663 1 35.2 12.8 3.2 -11.8417
664 3 36.8 14.4 4.8 -11.2426
665 1 38.4 12.8 3.2 -11.8124
666 3 40 14.4 4.8 -11.2426
667 1 41.6 12.8 3.2 -11.7846
668 3 43.2 14.4 4.8 -11.0822
669 1 44.8 12.8 3.2 -11.4792
670 1 46.4 14.4 4.8 -11.3758
671 3 48 12.8 3.2 -10.8459
672 1 49.6 14.4 4.8 -11.6774
673 3 0 16 3.2 -11.1876
674 3 1.6 17.6 4.8 -11.1337
675 3 3.2 16 3.2 -10.9891
676 1 4.8 17.6 4.8 -11.4201
677 1 6.4 16 3.2 -11.4792
678 3 8 17.6 4.8 -11.0038
679 1 9.6 16 3.2 -11.7151
680 1 11.2 17.6 4.8 -11.4328
681 1 12.8 16 3.2 -11.6255
682 3 14.4 17.6 4.8 -10.9925
683 1 16 16 3.2 -11.4837
684 3 17.6 17.6 4.8 -10.9928
685 1 19.2 16 3.2 -11.6301
686 3 20.8 17.6 4.8 -11.0853
687 1 22.4 16 3.2 -11.7447
688 1 24 17.6 4.8 -11.3753
689 1 25.6 16 3.2 -11.5241
690 1 27.2 17.6 4.8 -11.3625
691 1 28.8 16 3.2 -11.4783
692 1 30.4 17.6 4.8 -11.477
693 1 32 16 3.2 -11.4419
694 1 33.6 17.6 4.8 -11.4175
695 1 35.2 16 3.2 -11.6514
696 3 36.8 17.6 4.8 -11.1263
697 1 38.4 16 3.2 -11.7808
698 3 40 17.6 4.8 -11.0804
699 1 41.6 16 3.2 -11.7846
700 3 43.2 17.6 4.8 -11.2441
701 1 44.8 16 3.2 -11.5664
702 3 46.4 17.6 4.8 -11.0387
703 1 48 16 3.2 -11.4133
704 2 49.6 17.6 4.8 -9.72629
705 1 0 19.2 3.2 -11.6058
706 3 1.6 20.8 4.8 -11.208
707 1 3.2 19.2 3.2 -11.4758
708 3 4.8 20.8 4.8 -10.9486
709 1 6.4 19.2 3.2 -11.4914
710 3 8 20.8 4.8 -11.0386
711 1 9.6 19.2 3.2 -11.681
712 2 11.2 20.8 4.8 -9.54327
713 1 12.8 19.2 3.2 -11.7096
714 3 14.4 20.8 4.8 -11.2054
715 1 16 19.2 3.2 -11.8417
716 3 17.6 20.8 4.8 -11.2429
717 1 19.2 19.2 3.2 -11.8415
718 3 20.8 20.8 4.8 -11.2703
719 1 22.4 19.2 3.2 -11.6784
720 1 24 20.8 4.8 -11.4429
721 1 25.6 19.2 3.2 -11.3455
722 1 27.2 20.8 4.8 -11.5623
723 3 28.8 19.2 3.2 -10.9514
724 1 30.4 20.8 4.8 -11.8124
725 2 32 19.2 3.2 -9.50646
726 1 33.6 20.8 4.8 -11.6213
727 2 35.2 19.2 3.2 -9.56819
728 2 36.8 20.8 4.8 -9.53136
729 1 38.4 19.2 3.2 -11.5567
730 1 40 20.8 4.8 -11.3174
731 1 41.6 19.2 3.2 -11.6824
732 3 43.2 20.8 4.8 -10.9922
733 1 44.8 19.2 3.2 -11.8124
734 3 46.4 20.8 4.8 -11.1256
735 1 48 19.2 3.2 -11.6413
736 3 49.6 20.8 4.8 -11.0851
737 1 0 22.4 3.2 -11.61
738 3 1.6 24 4.8 -10.9933
739 1 3.2 22.4 3.2 -11.5895
740 2 4.8 24 4.8 -9.54369
741 1 6.4 22.4 3.2 -11.4737
742 1 8 24 4.8 -11.4328
743 1 9.6 22.4 3.2 -11.6969
744 3 11.2 24 4.8 -11.0378
745 1 12.8 22.4 3.2 -11.7831
746 3 14.4 24 4.8 -11.2057
747 1 16 22.4 3.2 -11.7811
748 3 17.6 24 4.8 -11.039
749 1 19.2 22.4 3.2 -11.8122
750 3 20.8 24 4.8 -11.0327
751 1 22.4 22.4 3.2 -11.6453
752 1 24 24 4.8 -11.4607
753 1 25.6 22.4 3.2 -11.3598
754 1 27.2 24 4.8 -11.6749
755 3 28.8 22.4 3.2 -11.125
756 1 30.4 24 4.8 -11.8417
757 3 32 22.4 3.2 -11.206
758 1 33.6 24 4.8 -11.597
759 3 35.2 22.4 3.2 -10.9491
760 1 36.8 24 4.8 -11.4002
761 1 38.4 22.4 3.2 -11.3536
762 1 40 24 4.8 -11.2282
763 1 41.6 22.4 3.2 -11.3277
764 1 43.2 24 4.8 -11.3371
765 1 44.8 22.4 3.2 -11.5089
766 1 46.4 24 4.8 -11.4911
767 1 48 22.4 3.2 -11.549
768 2 49.6 24 4.8 -9.6385
769 1 0 25.6 3.2 -11.4522
771 1 3.2 25.6 3.2 -11.6083
773 1 6.4 25.6 3.2 -11.6185
775 1 9.6 25.6 3.2 -11.7203
777 1 12.8 25.6 3.2 -11.7828
779 1 16 25.6 3.2 -11.617
781 1 19.2 25.6 3.2 -11.4792
783 1 22.4 25.6 3.2 -11.389
785 2 25.6 25.6 3.2 -9.59671
787 3 28.8 25.6 3.2 -11.2054
789 3 32 25.6 3.2 -11.2048
791 2 35.2 25.6 3.2 -9.61465
793 3 38.4 25.6 3.2 -10.8973
795 2 41.6 25.6 3.2 -9.54548
797 3 44.8 25.6 3.2 -10.9465
799 3 48 25.6 3.2 -11.044
770 1 1.6 27.2 4.8 -11.2186
801 1 0 28.8 3.2 -11.1927
772 3 4.8 27.2 4.8 -11.0398
803 1 3.2 28.8 3.2 -11.454
774 3 8 27.2 4.8 -11.0821
805 1 6.4 28.8 3.2 -11.8124
776 2 11.2 27.2 4.8 -9.61441
807 1 9.6 28.8 3.2 -11.5973
778 3 14.4 27.2 4.8 -11.0814
809 1 12.8 28.8 3.2 -11.5582
780 1 17.6 27.2 4.8 -11.3875
811 2 16 28.8 3.2 -9.59329
782 1 20.8 27.2 4.8 -11.3044
813 3 19.2 28.8 3.2 -10.8015
784 1 24 27.2 4.8 -11.4934
815 2 22.4 28.8 3.2 -9.54523
817 3 25.6 28.8 3.2 -11.1263
786 1 27.2 27.2 4.8 -11.6799
819 3 28.8 28.8 3.2 -11.0822
788 1 30.4 27.2 4.8 -11.7089
821 3 32 28.8 3.2 -11.1259
790 1 33.6 27.2 4.8 -11.5745
823 2 35.2 28.8 3.2 -9.60038
792 1 36.8 27.2 4.8 -11.4067
825 3 38.4 28.8 3.2 -11.0847
794 1 40 27.2 4.8 -11.4779
827 3 41.6 28.8 3.2 -11.0398
796 1 43.2 27.2 4.8 -11.4427
829 3 44.8 28.8 3.2 -11.125
798 1 46.4 27.2 4.8 -11.5962
831 3 48 28.8 3.2 -11.0833
800 1 49.6 27.2 4.8 -11.4132
802 1 1.6 30.4 4.8 -11.3197
833 3 0 32 3.2 -10.9944
804 2 4.8 30.4 4.8 -9.50658
835 1 3.2 32 3.2 -11.4138
806 3 8 30.4 4.8 -10.9568
837 1 6.4 32 3.2 -11.5646
808 1 11.2 30.4 4.8 -11.3763
839 1 9.6 32 3.2 -11.505
810 2 14.4 30.4 4.8 -9.58721
841 1 12.8 32 3.2 -11.407
812 1 17.6 30.4 4.8 -11.4503
843 1 16 32 3.2 -11.3648
814 1 20.8 30.4 4.8 -11.4998
845 2 19.2 32 3.2 -9.50658
816 1 24 30.4 4.8 -11.4492
847 3 22.4 32 3.2 -11.0386
849 3 25.6 32 3.2 -11.1261
818 1 27.2 30.4 4.8 -11.5715
851 2 28.8 32 3.2 -9.51468
820 1 30.4 30.4 4.8 -11.4507
853 1 32 32 3.2 -11.3881
822 2 33.6 30.4 4.8 -9.49572
855 1 35.2 32 3.2 -11.4986
824 1 36.8 30.4 4.8 -11.5011
857 3 38.4 32 3.2 -11.0364
826 1 40 30.4 4.8 -11.4883
859 2 41.6 32 3.2 -9.63071
828 1 43.2 30.4 4.8 -11.4903
861 3 44.8 32 3.2 -11.2068
830 1 46.4 30.4 4.8 -11.7451
863 3 48 32 3.2 -11.1235
832 1 49.6 30.4 4.8 -11.6294
834 1 1.6 33.6 4.8 -11.6349
865 3 0 35.2 3.2 -11.1258
836 1 4.8 33.6 4.8 -11.3944
867 3 3.2 35.2 3.2 -10.8553
838 1 8 33.6 4.8 -11.4684
869 1 6.4 35.2 3.2 -11.5566
840 1 11.2 33.6 4.8 -11.3406
871 1 9.6 35.2 3.2 -11.5965
842 1 14.4 33.6 4.8 -11.3527
873 1 12.8 35.2 3.2 -11.5649
844 1 17.6 33.6 4.8 -11.3775
875 1 16 35.2 3.2 -11.4535
846 1 20.8 33.6 4.8 -11.5471
877 1 19.2 35.2 3.2 -11.3887
848 1 24 33.6 4.8 -11.5041
879 3 22.4 35.2 3.2 -10.9511
881 2 25.6 35.2 3.2 -9.47891
850 2 27.2 33.6 4.8 -9.49574
883 1 28.8 35.2 3.2 -11.3461
852 1 30.4 33.6 4.8 -11.3564
885 1 32 35.2 3.2 -11.4534
854 3 33.6 33.6 4.8 -10.9464
887 1 35.2 35.2 3.2 -11.5498
856 3 36.8 33.6 4.8 -11.0883
889 1 38.4 35.2 3.2 -11.509
858 2 40 33.6 4.8 -9.59939
891 1 41.6 35.2 3.2 -11.3484
860 1 43.2 33.6 4.8 -11.5519
893 3 44.8 35.2 3.2 -10.8569
862 1 46.4 33.6 4.8 -11.7451
895 1 48 35.2 3.2 -11.4328
864 1 49.6 33.6 4.8 -11.7448
866 1 1.6 36.8 4.8 -11.669
897 3 0 38.4 3.2 -11.1253
868 1 4.8 36.8 4.8 -11.5805
899 2 3.2 38.4 3.2 -9.532
870 3 8 36.8 4.8 -11.0862
901 1 6.4 38.4 3.2 -11.5867
872 2 11.2 36.8 4.8 -9.58701
903 1 9.6 38.4 3.2 -11.7511
874 3 14.4 36.8 4.8 -11.0408
905 1 12.8 38.4 3.2 -11.7511
876 2 17.6 36.8 4.8 -9.67292
907 1 16 38.4 3.2 -11.7091
878 1 20.8 36.8 4.8 -11.6202
909 1 19.2 38.4 3.2 -11.4183
880 1 24 36.8 4.8 -11.4179
911 2 22.4 38.4 3.2 -9.44936
913 1 25.6 38.4 3.2 -11.3118
882 1 27.2 36.8 4.8 -11.3571
915 1 28.8 38.4 3.2 -11.5244
884 3 30.4 36.8 4.8 -10.7939
917 1 32 38.4 3.2 -11.7093
886 3 33.6 36.8 4.8 -11.2074
919 1 35.2 38.4 3.2 -11.5653
888 3 36.8 36.8 4.8 -11.0381
921 1 38.4 38.4 3.2 -11.4192
890 2 40 36.8 4.8 -9.50646
923 1 41.6 38.4 3.2 -11.3676
892 1 43.2 36.8 4.8 -11.31
925 1 44.8 38.4 3.2 -11.392
894 1 46.4 36.8 4.8 -11.4967
927 2 48 38.4 3.2 -9.46011
896 1 49.6 36.8 4.8 -11.4995
898 2 1.6 40 4.8 -9.59209
929 3 0 41.6 3.2 -10.9894
900 3 4.8 40 4.8 -10.9979
931 1 3.2 41.6 3.2 -11.5482
902 3 8 40 4.8 -11.1688
933 1 6.4 41.6 3.2 -11.7093
904 2 11.2 40 4.8 -9.48006
935 1 9.6 41.6 3.2 -11.6454
906 3 14.4 40 4.8 -10.9976
937 1 12.8 41.6 3.2 -11.6111
908 1 17.6 40 4.8 -11.4262
939 1 16 41.6 3.2 -11.5965
910 1 20.8 40 4.8 -11.5968
941 1 19.2 41.6 3.2 -11.3782
912 1 24 40 4.8 -11.4779
943 3 22.4 41.6 3.2 -10.8068
945 1 25.6 41.6 3.2 -11.4775
914 3 27.2 40 4.8 -10.9941
947 1 28.8 41.6 3.2 -11.8121
916 3 30.4 40 4.8 -11.2435
949 1 32 41.6 3.2 -11.8121
918 3 33.6 40 4.8 -11.2048
951 1 35.2 41.6 3.2 -11.6843
920 2 36.8 40 4.8 -9.64685
953 1 38.4 41.6 3.2 -11.6467
922 3 40 40 4.8 -11.0843
955 1 41.6 41.6 3.2 -11.6152
924 2 43.2 40 4.8 -9.54511
957 1 44.8 41.6 3.2 -11.3281
926 3 46.4 40 4.8 -10.856
959 1 48 41.6 3.2 -11.4474
928 1 49.6 40 4.8 -11.4651
930 2 1.6 43.2 4.8 -9.63988
961 2 0 44.8 3.2 -9.63877
932 3 4.8 43.2 4.8 -11.1279
963 1 3.2 44.8 3.2 -11.664
934 3 8 43.2 4.8 -10.9933
965 1 6.4 44.8 3.2 -11.7807
936 1 11.2 43.2 4.8 -11.3389
967 1 9.6 44.8 3.2 -11.5965
938 2 14.4 43.2 4.8 -9.57576
969 1 12.8 44.8 3.2 -11.5498
940 1 17.6 43.2 4.8 -11.4606
971 1 16 44.8 3.2 -11.5814
942 1 20.8 43.2 4.8 -11.6288
973 1 19.2 44.8 3.2 -11.4516
944 1 24 43.2 4.8 -11.5821
975 3 22.4 44.8 3.2 -10.9545
977 1 25.6 44.8 3.2 -11.3579
946 3 27.2 43.2 4.8 -10.9959
979 1 28.8 44.8 3.2 -11.5696
948 3 30.4 43.2 4.8 -11.245
981 1 32 44.8 3.2 -11.5703
950 3 33.6 43.2 4.8 -11.0807
983 1 35.2 44.8 3.2 -11.636
952 3 36.8 43.2 4.8 -11.2065
985 1 38.4 44.8 3.2 -11.6363
954 3 40 43.2 4.8 -11.0821
987 1 41.6 44.8 3.2 -11.4428
956 3 43.2 43.2 4.8 -11.0386
989 1 44.8 44.8 3.2 -11.5231
958 2 46.4 43.2 4.8 -9.63202
991 2 48 44.8 3.2 -9.59894
960 1 49.6 43.2 4.8 -11.3314
962 2 1.6 46.4 4.8 -9.59643
993 1 0 48 3.2 -11.3823
964 3 4.8 46.4 4.8 -11.1193
995 1 3.2 48 3.2 -11.446
966 3 8 46.4 4.8 -11.1147
997 1 6.4 48 3.2 -11.4273
968 1 11.2 46.4 4.8 -11.4831
999 1 9.6 48 3.2 -11.5026
970 1 14.4 46.4 4.8 -11.5485
1001 1 12.8 48 3.2 -11.5073
972 1 17.6 46.4 4.8 -11.4047
1003 1 16 48 3.2 -11.5089
974 1 20.8 46.4 4.8 -11.5725
1005 1 19.2 48 3.2 -11.3441
976 1 24 46.4 4.8 -11.6742
1007 3 22.4 48 3.2 -11.0444
1009 2 25.6 48 3.2 -9.42548
978 1 27.2 46.4 4.8 -11.4128
1011 1 28.8 48 3.2 -11.3449
980 3 30.4 46.4 4.8 -10.8578
1013 1 32 48 3.2 -11.4082
982 1 33.6 46.4 4.8 -11.3735
1015 1 35.2 48 3.2 -11.5241
984 3 36.8 46.4 4.8 -11.003
1017 1 38.4 48 3.2 -11.6296
986 1 40 46.4 4.8 -11.3712
1019 1 41.6 48 3.2 -11.4136
988 3 43.2 46.4 4.8 -10.9933
1021 1 44.8 48 3.2 -11.5429
990 3 46.4 46.4 4.8 -11.1203
1023 3 48 48 3.2 -11.0304
992 1 49.6 46.4 4.8 -11.3553
994 1 1.6 49.6 4.8 -11.4721
996 1 4.8 49.6 4.8 -11.5026
998 1 8 49.6 4.8 -11.4573
1000 1 11.2 49.6 4.8 -11.565
1002 1 14.4 49.6 4.8 -11.5214
1004 1 17.6 49.6 4.8 -11.3343
1006 1 20.8 49.6 4.8 -11.4833
1008 1 24 49.6 4.8 -11.7846
1010 1 27.2 49.6 4.8 -11.4487
1012 3 30.4 49.6 4.8 -10.9472
1014 3 33.6 49.6 4.8 -10.9914
1016 3 36.8 49.6 4.8 -11.2444
1018 3 40 49.6 4.8 -11.1252
1020 3 43.2 49.6 4.8 -11.0846
1022 2 46.4 49.6 4.8 -9.6349
1024 1 49.6 49.6 4.8 -11.5271
1025 3 0 0 6.4 -11.0395
1026 1 1.6 1.6 8 -11.7508
1027 3 3.2 0 6.4 -11.1264
1028 1 4.8 1.6 8 -11.8124
1029 3 6.4 0 6.4 -11.1267
1030 1 8 1.6 8 -11.7446
1031 3 9.6 0 6.4 -11.1285
1032 1 11.2 1.6 8 -11.6996
1033 3 12.8 0 6.4 -11.1595
1034 1 14.4 1.6 8 -11.6213
1035 2 16 0 6.4 -9.56159
1036 1 17.6 1.6 8 -11.6332
1037 2 19.2 0 6.4 -9.50594
1038 1 20.8 1.6 8 -11.7524
1039 3 22.4 0 6.4 -11.1676
1040 1 24 1.6 8 -11.7991
1041 2 25.6 0 6.4 -9.61477
1042 1 27.2 1.6 8 -11.4415
1043 1 28.8 0 6.4 -11.4405
1044 3 30.4 1.6 8 -11.083
1045 1 32 0 6.4 -11.8124
1046 3 33.6 1.6 8 -11.2048
1047 1 35.2 0 6.4 -11.8124
1048 2 36.8 1.6 8 -9.54383
1049 1 38.4 0 6.4 -11.7096
1050 1 40 1.6 8 -11.3202
1051 1 41.6 0 6.4 -11.6296
1052 1 43.2 1.6 8 -11.3378
1053 1 44.8 0 6.4 -11.4535
1054 1 46.4 1.6 8 -11.3741
1055 2 48 0 6.4 -9.51497
1056 1 49.6 1.6 8 -11.6473
1057 3 0 3.2 6.4 -11.2045
1058 1 1.6 4.8 8 -11.6454
1059 3 3.2 3.2 6.4 -11.2045
1060 1 4.8 4.8 8 -11.7096
1061 3 6.4 3.2 6.4 -11.1253
1062 1 8 4.8 8 -11.6293
1063 1 9.6 3.2 6.4 -11.4454
1064 1 11.2 4.8 8 -11.5085
1065 1 12.8 3.2 6.4 -11.5403
1066 1 14.4 4.8 8 -11.5073
1067 1 16 3.2 6.4 -11.468
1068 1 17.6 4.8 8 -11.5007
1069 3 19.2 3.2 6.4 -10.94
1070 1 20.8 4.8 8 -11.5439
1071 3 22.4 3.2 6.4 -11.262
1072 3 24 4.8 8 -11.0906
1073 2 25.6 3.2 6.4 -9.64963
1074 1 27.2 4.8 8 -11.4018
1075 1 28.8 3.2 6.4 -11.4423
1076 3 30.4 4.8 8 -11.1264
1077 1 32 3.2 6.4 -11.8124
1078 3 33.6 4.8 8 -11.0816
1079 1 35.2 3.2 6.4 -11.8124
1080 3 36.8 4.8 8 -11.04
1081 1 38.4 3.2 6.4 -11.6749
1082 2 40 4.8 8 -9.56804
1083 1 41.6 3.2 6.4 -11.5192
1084 1 43.2 4.8 8 -11.505
1085 1 44.8 3.2 6.4 -11.3377
1086 1 46.4 4.8 8 -11.6291
1087 3 48 3.2 6.4 -11.0833
1088 1 49.6 4.8 8 -11.7811
1089 3 0 6.4 6.4 -11.2048
1090 1 1.6 8 8 -11.5632
1091 3 3.2 6.4 6.4 -11.1247
1092 1 4.8 8 8 -11.5241
1093 3 6.4 6.4 6.4 -11.127
1094 1 8 8 8 -11.5026
1095 1 9.6 6.4 6.4 -11.3758
1096 1 11.2 8 8 -11.3776
1097 1 12.8 6.4 6.4 -11.5085
1098 1 14.4 8 8 -11.3281
1099 1 16 6.4 6.4 -11.5476
1100 2 17.6 8 8 -9.57826
1101 1 19.2 6.4 6.4 -11.6139
1102 3 20.8 8 8 -10.9581
1103 1 22.4 6.4 6.4 -11.7126