ITEM: TIMESTEP
0
ITEM: NUMBER OF ATOMS
8192
ITEM: BOX BOUNDS pp pp pp
0.0000000000000000e+00 5.1200000000000003e+01
0.0000000000000000e+00 5.1200000000000003e+01
0.0000000000000000e+00 5.1200000000000003e+01
ITEM: ATOMS id type x y z c_eng
1 2 0 0 0 -9.54449
2 1 1.6 1.6 1.6 -11.8124
3 3 3.2 0 0 -10.9573
4 1 4.8 1.6 1.6 -11.6742
5 1 6.4 0 0 -11.4699
6 1 8 1.6 1.6 -11.386
7 1 9.6 0 0 -11.5647
8 3 11.2 1.6 1.6 -10.9499
9 1 12.8 0 0 -11.8124
10 3 14.4 1.6 1.6 -11.1258
11 1 16 0 0 -11.8417
12 3 17.6 1.6 1.6 -10.9457
13 1 19.2 0 0 -11.6293
14 1 20.8 1.6 1.6 -11.4179
15 1 22.4 0 0 -11.5093
16 1 24 1.6 1.6 -11.3838
17 1 25.6 0 0 -11.5188
18 2 27.2 1.6 1.6 -9.37218
19 1 28.8 0 0 -11.4179
20 2 30.4 1.6 1.6 -9.58701
21 1 32 0 0 -11.52
22 3 33.6 1.6 1.6 -11.1666
23 1 35.2 0 0 -11.5647
24 3 36.8 1.6 1.6 -11.1648
25 1 38.4 0 0 -11.5976
26 3 40 1.6 1.6 -11.2432
27 1 41.6 0 0 -11.5981
28 3 43.2 1.6 1.6 -11.0838
29 1 44.8 0 0 -11.3637
30 1 46.4 1.6 1.6 -11.5077
31 3 48 0 0 -11.0443
32 1 49.6 1.6 1.6 -11.8124
33 3 0 3.2 0 -11.2042
34 1 1.6 4.8 1.6 -11.8417
35 3 3.2 3.2 0 -11.2054
36 1 4.8 4.8 1.6 -11.8124
37 2 6.4 3.2 0 -9.54487
38 1 8 4.8 1.6 -11.477
39 1 9.6 3.2 0 -11.4405
40 3 11.2 4.8 1.6 -11.0855
41 1 12.8 3.2 0 -11.8124
42 3 14.4 4.8 1.6 -11.1263
43 1 16 3.2 0 -11.7811
44 2 17.6 4.8 1.6 -9.5136
45 1 19.2 3.2 0 -11.6876
46 3 20.8 4.8 1.6 -10.9516
47 1 22.4 3.2 0 -11.5876
48 1 24 4.8 1.6 -11.2755
49 1 25.6 3.2 0 -11.4837
50 1 27.2 4.8 1.6 -11.2183
51 1 28.8 3.2 0 -11.6454
52 2 30.4 4.8 1.6 -9.61367
53 1 32 3.2 0 -11.7811
54 3 33.6 4.8 1.6 -11.1661
55 1 35.2 3.2 0 -11.7846
56 2 36.8 4.8 1.6 -9.64685
57 1 38.4 3.2 0 -11.7846
58 3 40 4.8 1.6 -11.0813
59 1 41.6 3.2 0 -11.8417
60 3 43.2 4.8 1.6 -11.1267
61 1 44.8 3.2 0 -11.5073
62 1 46.4 4.8 1.6 -11.5073
63 3 48 3.2 0 -11.1264
64 1 49.6 4.8 1.6 -11.8417
65 3 0 6.4 0 -11.2423
66 1 1.6 8 1.6 -11.7096
67 3 3.2 6.4 0 -11.242
68 1 4.8 8 1.6 -11.8124
69 3 6.4 6.4 0 -11.0825
70 1 8 8 1.6 -11.4713
71 1 9.6 6.4 0 -11.4191
72 2 11.2 8 1.6 -9.47359
73 1 12.8 6.4 0 -11.5614
74 2 14.4 8 1.6 -9.60051
75 1 16 6.4 0 -11.4874
76 1 17.6 8 1.6 -11.3143
77 1 19.2 6.4 0 -11.4969
78 2 20.8 8 1.6 -9.61465
79 1 22.4 6.4 0 -11.6876
80 3 24 8 1.6 -11.0381
81 1 25.6 6.4 0 -11.6301
82 3 27.2 8 1.6 -10.992
83 1 28.8 6.4 0 -11.7096
84 3 30.4 8 1.6 -11.1654
85 1 32 6.4 0 -11.8124
86 3 33.6 8 1.6 -11.1235
87 1 35.2 6.4 0 -11.6753
88 1 36.8 8 1.6 -11.3095
89 1 38.4 6.4 0 -11.4527
90 1 40 8 1.6 -11.2745
91 1 41.6 6.4 0 -11.6301
92 3 43.2 8 1.6 -11.0054
93 1 44.8 6.4 0 -11.5073
94 1 46.4 8 1.6 -11.4766
95 3 48 6.4 0 -11.1261
96 1 49.6 8 1.6 -11.7096
97 3 0 9.6 0 -11.1247
98 1 1.6 11.2 1.6 -11.7096
99 3 3.2 9.6 0 -11.2051
100 1 4.8 11.2 1.6 -11.6031
101 3 6.4 9.6 0 -10.9933
102 1 8 11.2 1.6 -11.3911
103 1 9.6 9.6 0 -11.2933
104 2 11.2 11.2 1.6 -9.50608
105 1 12.8 9.6 0 -11.4228
106 3 14.4 11.2 1.6 -11.083
107 2 16 9.6 0 -9.49739
108 2 17.6 11.2 1.6 -9.50033
109 1 19.2 9.6 0 -11.4524
110 3 20.8 11.2 1.6 -11.084
111 1 22.4 9.6 0 -11.7208
112 3 24 11.2 1.6 -11.2048
113 1 25.6 9.6 0 -11.8124
114 3 27.2 11.2 1.6 -11.2048
115 1 28.8 9.6 0 -11.8417
116 3 30.4 11.2 1.6 -11.2042
117 1 32 9.6 0 -11.8417
118 3 33.6 11.2 1.6 -11.2426
119 1 35.2 9.6 0 -11.7096
120 3 36.8 11.2 1.6 -11.1238
121 1 38.4 9.6 0 -11.4527
122 3 40 11.2 1.6 -11.0819
123 1 41.6 9.6 0 -11.5981
124 3 43.2 11.2 1.6 -11.0844
125 1 44.8 9.6 0 -11.5089
126 1 46.4 11.2 1.6 -11.3314
127 3 48 9.6 0 -10.9464
128 1 49.6 11.2 1.6 -11.579
129 3 0 12.8 0 -10.9922
130 1 1.6 14.4 1.6 -11.8121
131 3 3.2 12.8 0 -11.1258
132 1 4.8 14.4 1.6 -11.4432
133 1 6.4 12.8 0 -11.2612
134 2 8 14.4 1.6 -9.38863
135 1 9.6 12.8 0 -11.4008
136 3 11.2 14.4 1.6 -11.1255
137 1 12.8 12.8 0 -11.5297
138 3 14.4 14.4 1.6 -11.0822
139 1 16 12.8 0 -11.3891
140 1 17.6 14.4 1.6 -11.3444
141 1 19.2 12.8 0 -11.452
142 3 20.8 14.4 1.6 -11.1247
143 1 22.4 12.8 0 -11.7811
144 3 24 14.4 1.6 -11.166
145 1 25.6 12.8 0 -11.7831
146 2 27.2 14.4 1.6 -9.61441
147 1 28.8 12.8 0 -11.7511
148 2 30.4 14.4 1.6 -9.57956
149 1 32 12.8 0 -11.7811
150 3 33.6 14.4 1.6 -11.0827
151 1 35.2 12.8 0 -11.8417
152 3 36.8 14.4 1.6 -11.2045
153 1 38.4 12.8 0 -11.8124
154 3 40 14.4 1.6 -11.1645
155 1 41.6 12.8 0 -11.7831
156 2 43.2 14.4 1.6 -9.61404
157 1 44.8 12.8 0 -11.4508
158 1 46.4 14.4 1.6 -11.2308
159 1 48 12.8 0 -11.2664
160 1 49.6 14.4 1.6 -11.4822
161 3 0 16 0 -11.1304
162 1 1.6 17.6 1.6 -11.5424
163 3 3.2 16 0 -10.9469
164 1 4.8 17.6 1.6 -11.3005
165 1 6.4 16 0 -11.3331
166 2 8 17.6 1.6 -9.54538
167 1 9.6 16 0 -11.6471
168 3 11.2 17.6 1.6 -11.2054
169 1 12.8 16 0 -11.7811
170 3 14.4 17.6 1.6 -11.1244
171 1 16 16 0 -11.4974
172 3 17.6 17.6 1.6 -10.9914
173 1 19.2 16 0 -11.5258
174 3 20.8 17.6 1.6 -11.1668
175 1 22.4 16 0 -11.7811
176 2 24 17.6 1.6 -9.56435
177 1 25.6 16 0 -11.5307
178 1 27.2 17.6 1.6 -11.3116
179 1 28.8 16 0 -11.3744
180 1 30.4 17.6 1.6 -11.4066
181 1 32 16 0 -11.4442
182 1 33.6 17.6 1.6 -11.343
183 1 35.2 16 0 -11.5973
184 2 36.8 17.6 1.6 -9.54474
185 1 38.4 16 0 -11.8124
186 3 40 17.6 1.6 -11.081
187 1 41.6 16 0 -11.8124
188 3 43.2 17.6 1.6 -11.2054
189 1 44.8 16 0 -11.6753
190 3 46.4 17.6 1.6 -10.9925
191 1 48 16 0 -11.4745
192 1 49.6 17.6 1.6 -11.4471
193 1 0 19.2 0 -11.5026
194 3 1.6 20.8 1.6 -10.9933
195 1 3.2 19.2 0 -11.4072
196 3 4.8 20.8 1.6 -11.0432
197 1 6.4 19.2 0 -11.5689
198 2 8 20.8 1.6 -9.64805
199 1 9.6 19.2 0 -11.7811
200 3 11.2 20.8 1.6 -11.0846
201 1 12.8 19.2 0 -11.7451
202 1 14.4 20.8 1.6 -11.4284
203 1 16 19.2 0 -11.6445
204 3 17.6 20.8 1.6 -11.1238
205 1 19.2 19.2 0 -11.7451
206 3 20.8 20.8 1.6 -11.206
207 1 22.4 19.2 0 -11.7508
208 2 24 20.8 1.6 -9.56852
209 1 25.6 19.2 0 -11.427
210 1 27.2 20.8 1.6 -11.5287
211 2 28.8 19.2 0 -9.46881
212 1 30.4 20.8 1.6 -11.7511
213 3 32 19.2 0 -10.9512
214 1 33.6 20.8 1.6 -11.5968
215 1 35.2 19.2 0 -11.3044
216 1 36.8 20.8 1.6 -11.3528
217 1 38.4 19.2 0 -11.4959
218 1 40 20.8 1.6 -11.3793
219 1 41.6 19.2 0 -11.7451
220 3 43.2 20.8 1.6 -10.9922
221 1 44.8 19.2 0 -11.8417
222 3 46.4 20.8 1.6 -11.1267
223 1 48 19.2 0 -11.7446
224 3 49.6 20.8 1.6 -11.0062
225 1 0 22.4 0 -11.5529
226 3 1.6 24 1.6 -11.0856
227 1 3.2 22.4 0 -11.6806
228 2 4.8 24 1.6 -9.677
229 1 6.4 22.4 0 -11.7511
230 2 8 24 1.6 -9.67688
231 1 9.6 22.4 0 -11.7811
232 3 11.2 24 1.6 -11.1661
233 1 12.8 22.4 0 -11.7096
234 2 14.4 24 1.6 -9.6466
235 1 16 22.4 0 -11.681
236 3 17.6 24 1.6 -11.126
237 1 19.2 22.4 0 -11.7811
238 3 20.8 24 1.6 -10.9462
239 1 22.4 22.4 0 -11.5647
240 1 24 24 1.6 -11.386
241 1 25.6 22.4 0 -11.3629
242 1 27.2 24 1.6 -11.6473
243 3 28.8 22.4 0 -10.9928
244 1 30.4 24 1.6 -11.8124
245 3 32 22.4 0 -11.2051
246 1 33.6 24 1.6 -11.7846
247 2 35.2 22.4 0 -9.54462
248 1 36.8 24 1.6 -11.6473
249 1 38.4 22.4 0 -11.284
250 1 40 24 1.6 -11.3727
251 1 41.6 22.4 0 -11.4057
252 1 43.2 24 1.6 -11.4621
253 1 44.8 22.4 0 -11.5073
254 1 46.4 24 1.6 -11.4757
255 1 48 22.4 0 -11.5081
256 1 49.6 24 1.6 -11.4094
257 2 0 25.6 0 -9.60731
259 1 3.2 25.6 0 -11.6611
261 1 6.4 25.6 0 -11.7511
263 1 9.6 25.6 0 -11.8124
265 1 12.8 25.6 0 -11.7846
267 1 16 25.6 0 -11.6156
269 1 19.2 25.6 0 -11.4862
271 1 22.4 25.6 0 -11.3044
273 2 25.6 25.6 0 -9.50595
275 3 28.8 25.6 0 -11.1657
277 3 32 25.6 0 -11.2423
279 3 35.2 25.6 0 -11.1654
281 3 38.4 25.6 0 -11.1261
283 3 41.6 25.6 0 -10.9928
285 3 44.8 25.6 0 -11.1278
287 3 48 25.6 0 -10.9085
258 2 1.6 27.2 1.6 -9.54525
289 1 0 28.8 0 -11.3878
260 2 4.8 27.2 1.6 -9.67791
291 1 3.2 28.8 0 -11.5328
262 3 8 27.2 1.6 -11.1642
293 1 6.4 28.8 0 -11.7831
264 3 11.2 27.2 1.6 -11.2435
295 1 9.6 28.8 0 -11.8124
266 3 14.4 27.2 1.6 -11.084
297 1 12.8 28.8 0 -11.7844
268 2 17.6 27.2 1.6 -9.41355
299 1 16 28.8 0 -11.5351
270 1 20.8 27.2 1.6 -11.3876
301 2 19.2 28.8 0 -9.52461
272 1 24 27.2 1.6 -11.5649
303 3 22.4 28.8 0 -11.0387
305 3 25.6 28.8 0 -11.1654
274 1 27.2 27.2 1.6 -11.7532
307 2 28.8 28.8 0 -9.70683
276 1 30.4 27.2 1.6 -11.7811
309 3 32 28.8 0 -11.2054
278 1 33.6 27.2 1.6 -11.7096
311 3 35.2 28.8 0 -11.1238
280 1 36.8 27.2 1.6 -11.7093
313 3 38.4 28.8 0 -11.2051
282 1 40 27.2 1.6 -11.7451
315 3 41.6 28.8 0 -11.2429
284 1 43.2 27.2 1.6 -11.7447
317 3 44.8 28.8 0 -11.1226
286 1 46.4 27.2 1.6 -11.7203
319 1 48 28.8 0 -11.3704
288 1 49.6 27.2 1.6 -11.4881
290 2 1.6 30.4 1.6 -9.60525
321 3 0 32 0 -11.0427
292 3 4.8 30.4 1.6 -10.9938
323 1 3.2 32 0 -11.5483
294 3 8 30.4 1.6 -11.2065
325 1 6.4 32 0 -11.7831
296 3 11.2 30.4 1.6 -11.0824
327 1 9.6 32 0 -11.8124
298 2 14.4 30.4 1.6 -9.5994
329 1 12.8 32 0 -11.7201
300 1 17.6 30.4 1.6 -11.5644
331 2 16 32 0 -9.65169
302 1 20.8 30.4 1.6 -11.6745
333 3 19.2 32 0 -11.0823
304 1 24 30.4 1.6 -11.8124
335 3 22.4 32 0 -11.206
337 3 25.6 32 0 -11.2429
306 1 27.2 30.4 1.6 -11.7511
339 3 28.8 32 0 -11.1262
308 1 30.4 30.4 1.6 -11.6513
341 3 32 32 0 -11.0822
310 1 33.6 30.4 1.6 -11.5244
343 3 35.2 32 0 -11.1261
312 1 36.8 30.4 1.6 -11.5876
345 3 38.4 32 0 -11.1247
314 1 40 30.4 1.6 -11.7093
347 3 41.6 32 0 -11.2054
316 1 43.2 30.4 1.6 -11.8124
349 3 44.8 32 0 -11.2045
318 1 46.4 30.4 1.6 -11.7451
351 3 48 32 0 -11.1238
320 1 49.6 30.4 1.6 -11.6368
322 1 1.6 33.6 1.6 -11.5619
353 2 0 35.2 0 -9.6478
324 2 4.8 33.6 1.6 -9.59696
355 1 3.2 35.2 0 -11.4255
326 3 8 33.6 1.6 -11.0819
357 1 6.4 35.2 0 -11.7508
328 3 11.2 33.6 1.6 -10.9925
359 1 9.6 35.2 0 -11.8417
330 1 14.4 33.6 1.6 -11.4447
361 1 12.8 35.2 0 -11.7093
332 2 17.6 33.6 1.6 -9.59259
363 1 16 35.2 0 -11.6336
334 1 20.8 33.6 1.6 -11.6461
365 1 19.2 35.2 0 -11.4195
336 1 24 33.6 1.6 -11.8124
367 2 22.4 35.2 0 -9.42509
369 3 25.6 35.2 0 -10.9951
338 1 27.2 33.6 1.6 -11.6753
371 2 28.8 35.2 0 -9.47347
340 1 30.4 33.6 1.6 -11.4182
373 2 32 35.2 0 -9.50671
342 1 33.6 33.6 1.6 -11.4428
375 3 35.2 35.2 0 -10.9465
344 1 36.8 33.6 1.6 -11.5093
377 3 38.4 35.2 0 -11.0838
346 1 40 33.6 1.6 -11.4829
379 3 41.6 35.2 0 -11.125
348 1 43.2 33.6 1.6 -11.7096
381 3 44.8 35.2 0 -11.206
350 1 46.4 33.6 1.6 -11.8417
383 3 48 35.2 0 -11.1648
352 1 49.6 33.6 1.6 -11.8122
354 1 1.6 36.8 1.6 -11.5344
385 3 0 38.4 0 -11.0369
356 2 4.8 36.8 1.6 -9.55477
387 1 3.2 38.4 0 -11.4224
358 3 8 36.8 1.6 -11.2057
389 1 6.4 38.4 0 -11.6824
360 3 11.2 36.8 1.6 -11.2432
391 1 9.6 38.4 0 -11.8417
362 3 14.4 36.8 1.6 -11.1247
393 1 12.8 38.4 0 -11.8417
364 3 17.6 36.8 1.6 -10.9464
395 1 16 38.4 0 -11.8417
366 1 20.8 36.8 1.6 -11.4138
397 1 19.2 38.4 0 -11.6291
368 1 24 36.8 1.6 -11.4491
399 1 22.4 38.4 0 -11.4278
401 1 25.6 38.4 0 -11.4057
370 1 27.2 36.8 1.6 -11.3642
403 1 28.8 38.4 0 -11.37
372 1 30.4 36.8 1.6 -11.296
405 1 32 38.4 0 -11.3112
374 1 33.6 36.8 1.6 -11.339
407 1 35.2 38.4 0 -11.2765
376 1 36.8 36.8 1.6 -11.3625
409 2 38.4 38.4 0 -9.42549
378 1 40 36.8 1.6 -11.4792
411 3 41.6 38.4 0 -10.9944
380 1 43.2 36.8 1.6 -11.4906
413 2 44.8 38.4 0 -9.58677
382 1 46.4 36.8 1.6 -11.5626
415 2 48 38.4 0 -9.57906
384 1 49.6 36.8 1.6 -11.6476
386 2 1.6 40 1.6 -9.52027
417 3 0 41.6 0 -10.7399
388 1 4.8 40 1.6 -11.3191
419 1 3.2 41.6 0 -11.3271
390 3 8 40 1.6 -11.1235
421 1 6.4 41.6 0 -11.5981
392 3 11.2 40 1.6 -11.2417
423 1 9.6 41.6 0 -11.8417
394 3 14.4 40 1.6 -11.2426
425 1 12.8 41.6 0 -11.8417
396 3 17.6 40 1.6 -11.2077
427 1 16 41.6 0 -11.8417
398 3 20.8 40 1.6 -10.9486
429 1 19.2 41.6 0 -11.6294
400 1 24 40 1.6 -11.406
431 1 22.4 41.6 0 -11.4662
433 1 25.6 41.6 0 -11.5664
402 3 27.2 40 1.6 -10.9517
435 1 28.8 41.6 0 -11.5692
404 3 30.4 40 1.6 -10.9507
437 1 32 41.6 0 -11.3886
406 3 33.6 40 1.6 -10.8059
439 2 35.2 41.6 0 -9.3814
408 1 36.8 40 1.6 -11.3517
441 1 38.4 41.6 0 -11.2785
410 1 40 40 1.6 -11.3854
443 2 41.6 41.6 0 -9.59753
412 1 43.2 40 1.6 -11.4112
445 3 44.8 41.6 0 -10.9941
414 1 46.4 40 1.6 -11.4597
447 2 48 41.6 0 -9.64961
416 1 49.6 40 1.6 -11.5511
418 1 1.6 43.2 1.6 -11.2717
449 1 0 44.8 0 -11.3089
420 1 4.8 43.2 1.6 -11.2429
451 1 3.2 44.8 0 -11.455
422 3 8 43.2 1.6 -11.1247
453 1 6.4 44.8 0 -11.7096
424 3 11.2 43.2 1.6 -11.2051
455 1 9.6 44.8 0 -11.8417
426 3 14.4 43.2 1.6 -11.1247
457 1 12.8 44.8 0 -11.8124
428 3 17.6 43.2 1.6 -10.9938
459 1 16 44.8 0 -11.8124
430 1 20.8 43.2 1.6 -11.3526
461 1 19.2 44.8 0 -11.484
432 1 24 43.2 1.6 -11.3087
463 1 22.4 44.8 0 -11.29
465 1 25.6 44.8 0 -11.4178
434 2 27.2 43.2 1.6 -9.47346
467 1 28.8 44.8 0 -11.4336
436 2 30.4 43.2 1.6 -9.47347
469 1 32 44.8 0 -11.2895
438 1 33.6 43.2 1.6 -11.3608
471 2 35.2 44.8 0 -9.45291
440 2 36.8 43.2 1.6 -9.52762
473 1 38.4 44.8 0 -11.5035
442 2 40 43.2 1.6 -9.52848
475 2 41.6 44.8 0 -9.57163
444 1 43.2 43.2 1.6 -11.4942
477 3 44.8 44.8 0 -10.85
446 1 46.4 43.2 1.6 -11.4902
479 2 48 44.8 0 -9.50645
448 1 49.6 43.2 1.6 -11.3173
450 2 1.6 46.4 1.6 -9.44974
481 1 0 48 0 -11.3038
452 3 4.8 46.4 1.6 -10.9574
483 1 3.2 48 0 -11.5861
454 3 8 46.4 1.6 -11.083
485 1 6.4 48 0 -11.7087
456 3 11.2 46.4 1.6 -11.1258
487 1 9.6 48 0 -11.8124
458 3 14.4 46.4 1.6 -11.0869
489 1 12.8 48 0 -11.8124
460 3 17.6 46.4 1.6 -10.9949
491 1 16 48 0 -11.8124
462 1 20.8 46.4 1.6 -11.3448
493 1 19.2 48 0 -11.5973
464 1 24 46.4 1.6 -11.3684
495 1 22.4 48 0 -11.4438
497 1 25.6 48 0 -11.4492
466 1 27.2 46.4 1.6 -11.2869
499 1 28.8 48 0 -11.3419
468 2 30.4 46.4 1.6 -9.37213
501 2 32 48 0 -9.3878
470 1 33.6 46.4 1.6 -11.4093
503 1 35.2 48 0 -11.4483
472 3 36.8 46.4 1.6 -11.0436
505 1 38.4 48 0 -11.4726
474 3 40 46.4 1.6 -10.9055
507 1 41.6 48 0 -11.3111
476 1 43.2 46.4 1.6 -11.3594
509 1 44.8 48 0 -11.2664
478 1 46.4 46.4 1.6 -11.4142
511 3 48 48 0 -10.9092
480 1 49.6 46.4 1.6 -11.2882
482 1 1.6 49.6 1.6 -11.4401
484 1 4.8 49.6 1.6 -11.5
486 2 8 49.6 1.6 -9.52417
488 3 11.2 49.6 1.6 -11.0841
490 3 14.4 49.6 1.6 -11.1261
492 3 17.6 49.6 1.6 -10.9944
494 1 20.8 49.6 1.6 -11.3764
496 1 24 49.6 1.6 -11.4766
498 1 27.2 49.6 1.6 -11.2574
500 1 30.4 49.6 1.6 -11.2806
502 2 33.6 49.6 1.6 -9.48721
504 3 36.8 49.6 1.6 -11.0836
506 3 40 49.6 1.6 -11.0838
508 2 43.2 49.6 1.6 -9.42536
510 1 46.4 49.6 1.6 -11.4419
512 1 49.6 49.6 1.6 -11.5653
513 3 0 0 3.2 -11.0827
514 1 1.6 1.6 4.8 -11.7811
515 3 3.2 0 3.2 -11.0844
516 1 4.8 1.6 4.8 -11.7831
517 2 6.4 0 3.2 -9.52432
518 1 8 1.6 4.8 -11.4895
519 1 9.6 0 3.2 -11.4272
520 1 11.2 1.6 4.8 -11.38
521 1 12.8 0 3.2 -11.5085
522 1 14.4 1.6 4.8 -11.3442
523 1 16 0 3.2 -11.5089
524 1 17.6 1.6 4.8 -11.3642
525 1 19.2 0 3.2 -11.3776
526 1 20.8 1.6 4.8 -11.6093
527 3 22.4 0 3.2 -10.9011
528 1 24 1.6 4.8 -11.6745
529 2 25.6 0 3.2 -9.52477
530 1 27.2 1.6 4.8 -11.4261
531 1 28.8 0 3.2 -11.4094
532 3 30.4 1.6 4.8 -11.0838
533 1 32 0 3.2 -11.6473
534 3 33.6 1.6 4.8 -11.2042
535 1 35.2 0 3.2 -11.7811
536 3 36.8 1.6 4.8 -11.2429
537 1 38.4 0 3.2 -11.8417
538 3 40 1.6 4.8 -11.1241
539 1 41.6 0 3.2 -11.8124
540 3 43.2 1.6 4.8 -10.9949
541 1 44.8 0 3.2 -11.477
542 1 46.4 1.6 4.8 -11.5085
543 3 48 0 3.2 -11.0849
544 1 49.6 1.6 4.8 -11.8124
545 3 0 3.2 3.2 -11.2039
546 1 1.6 4.8 4.8 -11.7811
547 3 3.2 3.2 3.2 -11.2042
548 1 4.8 4.8 4.8 -11.8124
549 3 6.4 3.2 3.2 -11.0395
550 1 8 4.8 4.8 -11.5097
551 1 9.6 3.2 3.2 -11.4047
552 3 11.2 4.8 4.8 -10.7978
553 1 12.8 3.2 3.2 -11.5973
554 2 14.4 4.8 4.8 -9.42522
555 1 16 3.2 3.2 -11.4508
556 1 17.6 4.8 4.8 -11.2588
557 1 19.2 3.2 3.2 -11.4604
558 2 20.8 4.8 4.8 -9.60719
559 2 22.4 3.2 3.2 -9.53224
560 1 24 4.8 4.8 -11.375
561 1 25.6 3.2 3.2 -11.2258
562 1 27.2 4.8 4.8 -11.1349
563 1 28.8 3.2 3.2 -11.423
564 3 30.4 4.8 4.8 -11.0395
565 1 32 3.2 3.2 -11.7811
566 3 33.6 4.8 4.8 -11.2423
567 1 35.2 3.2 3.2 -11.8124
568 3 36.8 4.8 4.8 -11.2051
569 1 38.4 3.2 3.2 -11.8124
570 3 40 4.8 4.8 -11.1261
571 1 41.6 3.2 3.2 -11.8417
572 3 43.2 4.8 4.8 -10.9946
573 1 44.8 3.2 3.2 -11.5073
574 1 46.4 4.8 4.8 -11.5085
575 3 48 3.2 3.2 -11.1261
576 1 49.6 4.8 4.8 -11.8124
577 3 0 6.4 3.2 -11.1235
578 1 1.6 8 4.8 -11.6753
579 3 3.2 6.4 3.2 -11.2045
580 1 4.8 8 4.8 -11.7842
581 3 6.4 6.4 3.2 -11.1267
582 1 8 8 4.8 -11.5441
583 1 9.6 6.4 3.2 -11.4766
584 3 11.2 8 4.8 -10.9497
585 1 12.8 6.4 3.2 -11.7532
586 3 14.4 8 4.8 -11.1271
587 1 16 6.4 3.2 -11.5084
588 2 17.6 8 4.8 -9.51346
589 1 19.2 6.4 3.2 -11.5077
590 3 20.8 8 4.8 -11.0416
591 1 22.4 6.4 3.2 -11.5961
592 2 24 8 4.8 -9.54448
593 1 25.6 6.4 3.2 -11.2505
594 1 27.2 8 4.8 -11.3177
595 1 28.8 6.4 3.2 -11.4603
596 2 30.4 8 4.8 -9.54341
597 1 32 6.4 3.2 -11.7846
598 3 33.6 8 4.8 -11.2051
599 1 35.2 6.4 3.2 -11.7096
600 3 36.8 8 4.8 -11.1244
601 1 38.4 6.4 3.2 -11.5981
602 3 40 8 4.8 -11.0035
603 1 41.6 6.4 3.2 -11.7451
604 3 43.2 8 4.8 -11.0855
605 1 44.8 6.4 3.2 -11.5077
606 1 46.4 8 4.8 -11.477
607 3 48 6.4 3.2 -11.0838
608 1 49.6 8 4.8 -11.6753
609 1 0 9.6 3.2 -11.3757
610 1 1.6 11.2 4.8 -11.5837
611 2 3.2 9.6 3.2 -9.64685
612 1 4.8 11.2 4.8 -11.6494
613 3 6.4 9.6 3.2 -11.0447
614 3 8 11.2 4.8 -10.9484
615 1 9.6 9.6 3.2 -11.5482
616 3 11.2 11.2 4.8 -11.208
617 1 12.8 9.6 3.2 -11.7508
618 3 14.4 11.2 4.8 -11.0819
619 1 16 9.6 3.2 -11.656
620 2 17.6 11.2 4.8 -9.55031
621 1 19.2 9.6 3.2 -11.5827
622 2 20.8 11.2 4.8 -9.61417
623 1 22.4 9.6 3.2 -11.7583
624 3 24 11.2 4.8 -11.1249
625 1 25.6 9.6 3.2 -11.7096
626 3 27.2 11.2 4.8 -11.1238
627 1 28.8 9.6 3.2 -11.7096
628 3 30.4 11.2 4.8 -11.166
629 1 32 9.6 3.2 -11.8124
630 3 33.6 11.2 4.8 -11.242
631 1 35.2 9.6 3.2 -11.7451
632 3 36.8 11.2 4.8 -11.2429
633 1 38.4 9.6 3.2 -11.6301
634 3 40 11.2 4.8 -11.1657
635 1 41.6 9.6 3.2 -11.7451
636 3 43.2 11.2 4.8 -11.0844
637 1 44.8 9.6 3.2 -11.4712
638 1 46.4 11.2 4.8 -11.4093
639 2 48 9.6 3.2 -9.52871
640 1 49.6 11.2 4.8 -11.5231
641 3 0 12.8 3.2 -10.9451
642 1 1.6 14.4 4.8 -11.5673
643 3 3.2 12.8 3.2 -11.0414
644 1 4.8 14.4 4.8 -11.3626
645 1 6.4 12.8 3.2 -11.4433
646 3 8 14.4 4.8 -11.0402
647 1 9.6 12.8 3.2 -11.6747
648 3 11.2 14.4 4.8 -11.2426
649 1 12.8 12.8 3.2 -11.8124
650 3 14.4 14.4 4.8 -11.2057
651 1 16 12.8 3.2 -11.682
652 3 17.6 14.4 4.8 -11.0416
653 1 19.2 12.8 3.2 -11.6513
654 3 20.8 14.4 4.8 -11.1285
655 1 22.4 12.8 3.2 -11.8124
656 3 24 14.4 4.8 -10.9928
657 1 25.6 12.8 3.2 -11.8124
658 3 27.2 14.4 4.8 -11.0844
659 1 28.8 12.8 3.2 -11.7811
660 3 30.4 14.4 4.8 -11.0403
661 1 32 12.8 3.2 -11.8124
662 3 33.6 14.4 4.8 -11.1256
663 1 35.2 12.8 3.2 -11.8417
664 3 36.8 14.4 4.8 -11.2045
665 1 38.4 12.8 3.2 -11.8124
666 2 40 14.4 4.8 -9.70694
667 1 41.6 12.8 3.2 -11.7511
668 2 43.2 14.4 4.8 -9.55236
669 1 44.8 12.8 3.2 -11.4095
670 1 46.4 14.4 4.8 -11.2585
671 2 48 12.8 3.2 -9.35093
672 1 49.6 14.4 4.8 -11.34
673 3 0 16 3.2 -10.9477
674 3 1.6 17.6 4.8 -10.9484
675 2 3.2 16 3.2 -9.55709
676 1 4.8 17.6 4.8 -11.3161
677 1 6.4 16 3.2 -11.3749
678 2 8 17.6 4.8 -9.57931
679 1 9.6 16 3.2 -11.7511
680 3 11.2 17.6 4.8 -11.2048
681 1 12.8 16 3.2 -11.8417
682 3 14.4 17.6 4.8 -11.2429
683 1 16 16 3.2 -11.7451
684 3 17.6 17.6 4.8 -11.1657
685 1 19.2 16 3.2 -11.7151
686 2 20.8 17.6 4.8 -9.63026
687 1 22.4 16 3.2 -11.6744
688 1 24 17.6 4.8 -11.4411
689 1 25.6 16 3.2 -11.5192
690 1 27.2 17.6 4.8 -11.4419
691 1 28.8 16 3.2 -11.4066
692 1 30.4 17.6 4.8 -11.4775
693 1 32 16 3.2 -11.4783
694 1 33.6 17.6 4.8 -11.3746
695 1 35.2 16 3.2 -11.5973
696 3 36.8 17.6 4.8 -11.0833
697 1 38.4 16 3.2 -11.7831
698 3 40 17.6 4.8 -11.2048
699 1 41.6 16 3.2 -11.7511
700 3 43.2 17.6 4.8 -11.2051
701 1 44.8 16 3.2 -11.5626
702 3 46.4 17.6 4.8 -10.9933
703 1 48 16 3.2 -11.3484
704 1 49.6 17.6 4.8 -11.3927
705 1 0 19.2 3.2 -11.6152
706 3 1.6 20.8 4.8 -11.245
707 1 3.2 19.2 3.2 -11.5867
708 3 4.8 20.8 4.8 -11.0819
709 1 6.4 19.2 3.2 -11.5054
710 2 8 20.8 4.8 -9.64841
711 1 9.6 19.2 3.2 -11.7187
712 3 11.2 20.8 4.8 -11.0813
713 1 12.8 19.2 3.2 -11.7451
714 3 14.4 20.8 4.8 -11.1235
715 1 16 19.2 3.2 -11.7451
716 3 17.6 20.8 4.8 -11.2429
717 1 19.2 19.2 3.2 -11.8122
718 3 20.8 20.8 4.8 -11.1656
719 1 22.4 19.2 3.2 -11.6389
720 1 24 20.8 4.8 -11.5666
721 2 25.6 19.2 3.2 -9.53179
722 1 27.2 20.8 4.8 -11.7183
723 2 28.8 19.2 3.2 -9.55069
724 1 30.4 20.8 4.8 -11.7811
725 3 32 19.2 3.2 -10.951
726 1 33.6 20.8 4.8 -11.6148
727 1 35.2 19.2 3.2 -11.4444
728 3 36.8 20.8 4.8 -11.0795
729 1 38.4 19.2 3.2 -11.6461
730 3 40 20.8 4.8 -11.0842
731 1 41.6 19.2 3.2 -11.7447
732 3 43.2 20.8 4.8 -11.2068
733 1 44.8 19.2 3.2 -11.8417
734 3 46.4 20.8 4.8 -11.1253
735 1 48 19.2 3.2 -11.6293
736 3 49.6 20.8 4.8 -11.0044
737 1 0 22.4 3.2 -11.6291
738 3 1.6 24 4.8 -10.992
739 1 3.2 22.4 3.2 -11.8124
740 3 4.8 24 4.8 -11.2051
741 1 6.4 22.4 3.2 -11.7208
742 3 8 24 4.8 -11.1648
743 1 9.6 22.4 3.2 -11.7511
744 3 11.2 24 4.8 -11.2441
745 1 12.8 22.4 3.2 -11.7096
746 3 14.4 24 4.8 -11.2051
747 1 16 22.4 3.2 -11.7096
748 3 17.6 24 4.8 -11.1241
749 1 19.2 22.4 3.2 -11.8417
750 3 20.8 24 4.8 -10.9944
751 1 22.4 22.4 3.2 -11.5502
752 1 24 24 4.8 -11.477
753 2 25.6 22.4 3.2 -9.56479
754 1 27.2 24 4.8 -11.7809
755 2 28.8 22.4 3.2 -9.67724
756 1 30.4 24 4.8 -11.8122
757 3 32 22.4 3.2 -11.2059
758 1 33.6 24 4.8 -11.5965
759 3 35.2 22.4 3.2 -10.999
760 1 36.8 24 4.8 -11.5123
761 2 38.4 22.4 3.2 -9.56277
762 1 40 24 4.8 -11.3887
763 1 41.6 22.4 3.2 -11.4475
764 2 43.2 24 4.8 -9.46126
765 1 44.8 22.4 3.2 -11.5828
766 1 46.4 24 4.8 -11.3884
767 1 48 22.4 3.2 -11.4733
768 1 49.6 24 4.8 -11.2589
769 1 0 25.6 3.2 -11.4387
771 1 3.2 25.6 3.2 -11.6504
773 1 6.4 25.6 3.2 -11.7511
775 1 9.6 25.6 3.2 -11.8124
777 1 12.8 25.6 3.2 -11.8124
779 1 16 25.6 3.2 -11.681
781 1 19.2 25.6 3.2 -11.4837
783 1 22.4 25.6 3.2 -11.3455
785 3 25.6 25.6 3.2 -11.0395
787 3 28.8 25.6 3.2 -11.1667
789 3 32 25.6 3.2 -11.2065
791 2 35.2 25.6 3.2 -9.54422
793 3 38.4 25.6 3.2 -10.9011
795 1 41.6 25.6 3.2 -11.3814
797 3 44.8 25.6 3.2 -10.9051
799 2 48 25.6 3.2 -9.426
770 1 1.6 27.2 4.8 -11.3515
801 2 0 28.8 3.2 -9.49167
772 3 4.8 27.2 4.8 -10.9431
803 1 3.2 28.8 3.2 -11.4939
774 3 8 27.2 4.8 -11.2065
805 1 6.4 28.8 3.2 -11.7203
776 3 11.2 27.2 4.8 -10.9914
807 1 9.6 28.8 3.2 -11.7446
778 3 14.4 27.2 4.8 -10.9938
809 1 12.8 28.8 3.2 -11.597
780 1 17.6 27.2 4.8 -11.2178
811 1 16 28.8 3.2 -11.4107
782 1 20.8 27.2 4.8 -11.1957
813 1 19.2 28.8 3.2 -11.2221
784 1 24 27.2 4.8 -11.4496
815 2 22.4 28.8 3.2 -9.42482
817 3 25.6 28.8 3.2 -11.1279
786 1 27.2 27.2 4.8 -11.7152
819 2 28.8 28.8 3.2 -9.58665
788 1 30.4 27.2 4.8 -11.6458
821 3 32 28.8 3.2 -10.7956
790 1 33.6 27.2 4.8 -11.385
823 1 35.2 28.8 3.2 -11.352
792 1 36.8 27.2 4.8 -11.4222
825 3 38.4 28.8 3.2 -10.9534
794 1 40 27.2 4.8 -11.3679
827 3 41.6 28.8 3.2 -10.9487
796 1 43.2 27.2 4.8 -11.4493
829 3 44.8 28.8 3.2 -11.2077
798 1 46.4 27.2 4.8 -11.5293
831 3 48 28.8 3.2 -10.9963
800 1 49.6 27.2 4.8 -11.3999
802 1 1.6 30.4 4.8 -11.2826
833 3 0 32 3.2 -11.0323
804 1 4.8 30.4 4.8 -11.2842
835 1 3.2 32 3.2 -11.3715
806 3 8 30.4 4.8 -10.9978
837 1 6.4 32 3.2 -11.4956
808 1 11.2 30.4 4.8 -11.409
839 1 9.6 32 3.2 -11.6161
810 1 14.4 30.4 4.8 -11.3854
841 1 12.8 32 3.2 -11.3933
812 1 17.6 30.4 4.8 -11.3598
843 2 16 32 3.2 -9.57674
814 1 20.8 30.4 4.8 -11.5041
845 3 19.2 32 3.2 -11.0429
816 1 24 30.4 4.8 -11.5419
847 3 22.4 32 3.2 -11.1674
849 3 25.6 32 3.2 -11.0833
818 1 27.2 30.4 4.8 -11.4174
851 2 28.8 32 3.2 -9.38849
820 1 30.4 30.4 4.8 -11.2956
853 1 32 32 3.2 -11.2671
822 1 33.6 30.4 4.8 -11.2889
855 1 35.2 32 3.2 -11.3198
824 2 36.8 30.4 4.8 -9.46198
857 1 38.4 32 3.2 -11.3887
826 1 40 30.4 4.8 -11.4952
859 2 41.6 32 3.2 -9.50569
828 1 43.2 30.4 4.8 -11.6471
861 3 44.8 32 3.2 -11.2048
830 1 46.4 30.4 4.8 -11.7811
863 3 48 32 3.2 -11.2441
832 1 49.6 30.4 4.8 -11.5649
834 1 1.6 33.6 4.8 -11.3841
865 3 0 35.2 3.2 -11.1285
836 1 4.8 33.6 4.8 -11.125
867 2 3.2 35.2 3.2 -9.5018
838 1 8 33.6 4.8 -11.3305
869 1 6.4 35.2 3.2 -11.6134
840 1 11.2 33.6 4.8 -11.3365
871 1 9.6 35.2 3.2 -11.6293
842 1 14.4 33.6 4.8 -11.3968
873 1 12.8 35.2 3.2 -11.5238
844 1 17.6 33.6 4.8 -11.5826
875 1 16 35.2 3.2 -11.5003
846 1 20.8 33.6 4.8 -11.6802
877 1 19.2 35.2 3.2 -11.3869
848 1 24 33.6 4.8 -11.5973
879 3 22.4 35.2 3.2 -11.0397
881 3 25.6 35.2 3.2 -10.8459
850 1 27.2 33.6 4.8 -11.3658
883 1 28.8 35.2 3.2 -11.2889
852 1 30.4 33.6 4.8 -11.2664
885 1 32 35.2 3.2 -11.3282
854 2 33.6 33.6 4.8 -9.42495
887 1 35.2 35.2 3.2 -11.4783
856 3 36.8 33.6 4.8 -10.9013
889 1 38.4 35.2 3.2 -11.4047
858 1 40 33.6 4.8 -11.3529
891 1 41.6 35.2 3.2 -11.3151
860 1 43.2 33.6 4.8 -11.5617
893 3 44.8 35.2 3.2 -10.9936
862 1 46.4 33.6 4.8 -11.8124
895 3 48 35.2 3.2 -11.0822
864 1 49.6 33.6 4.8 -11.7203
866 1 1.6 36.8 4.8 -11.5804
897 2 0 38.4 3.2 -9.53095
868 3 4.8 36.8 4.8 -11.0433
899 1 3.2 38.4 3.2 -11.5628
870 3 8 36.8 4.8 -10.9933
901 1 6.4 38.4 3.2 -11.7093
872 3 11.2 36.8 4.8 -10.9928
903 1 9.6 38.4 3.2 -11.8417
874 3 14.4 36.8 4.8 -11.0858
905 1 12.8 38.4 3.2 -11.8417
876 1 17.6 36.8 4.8 -11.3953
907 1 16 38.4 3.2 -11.7093
878 1 20.8 36.8 4.8 -11.4523
909 1 19.2 38.4 3.2 -11.4467
880 1 24 36.8 4.8 -11.4902
911 2 22.4 38.4 3.2 -9.57846
913 1 25.6 38.4 3.2 -11.3461
882 1 27.2 36.8 4.8 -11.3496
915 1 28.8 38.4 3.2 -11.5241
884 3 30.4 36.8 4.8 -10.8445
917 1 32 38.4 3.2 -11.6296
886 3 33.6 36.8 4.8 -11.0838
919 1 35.2 38.4 3.2 -11.5234
888 3 36.8 36.8 4.8 -11.0059
921 1 38.4 38.4 3.2 -11.4733
890 3 40 36.8 4.8 -10.7973
923 1 41.6 38.4 3.2 -11.3642
892 1 43.2 36.8 4.8 -11.3473
925 1 44.8 38.4 3.2 -11.2565
894 1 46.4 36.8 4.8 -11.4436
927 1 48 38.4 3.2 -11.2933
896 1 49.6 36.8 4.8 -11.4535
898 3 1.6 40 4.8 -11.0438
929 1 0 41.6 3.2 -11.4662
900 3 4.8 40 4.8 -11.125
931 1 3.2 41.6 3.2 -11.4834
902 3 8 40 4.8 -11.2057
933 1 6.4 41.6 3.2 -11.6301
904 3 11.2 40 4.8 -11.2063
935 1 9.6 41.6 3.2 -11.8124
906 3 14.4 40 4.8 -11.0827
937 1 12.8 41.6 3.2 -11.7091
908 2 17.6 40 4.8 -9.40404
939 1 16 41.6 3.2 -11.5976
910 1 20.8 40 4.8 -11.4819
941 1 19.2 41.6 3.2 -11.4754
912 1 24 40 4.8 -11.4474
943 3 22.4 41.6 3.2 -10.906
945 1 25.6 41.6 3.2 -11.4438
914 3 27.2 40 4.8 -10.9502
947 1 28.8 41.6 3.2 -11.7511
916 3 30.4 40 4.8 -11.2441
949 1 32 41.6 3.2 -11.6749
918 3 33.6 40 4.8 -11.2062
951 1 35.2 41.6 3.2 -11.6089
920 3 36.8 40 4.8 -11.0833
953 1 38.4 41.6 3.2 -11.504
922 3 40 40 4.8 -11.0392
955 1 41.6 41.6 3.2 -11.4974
924 2 43.2 40 4.8 -9.50683
957 1 44.8 41.6 3.2 -11.4616
926 2 46.4 40 4.8 -9.4057
959 2 48 41.6 3.2 -9.32945
928 1 49.6 40 4.8 -11.2525
930 3 1.6 43.2 4.8 -10.9936
961 1 0 44.8 3.2 -11.2481
932 3 4.8 43.2 4.8 -11.1253
963 1 3.2 44.8 3.2 -11.5981
934 3 8 43.2 4.8 -11.0381
965 1 6.4 44.8 3.2 -11.6445
936 2 11.2 43.2 4.8 -9.56998
967 1 9.6 44.8 3.2 -11.5973
938 1 14.4 43.2 4.8 -11.3866
969 1 12.8 44.8 3.2 -11.5828
940 1 17.6 43.2 4.8 -11.2599
971 1 16 44.8 3.2 -11.4729
942 1 20.8 43.2 4.8 -11.4496
973 1 19.2 44.8 3.2 -11.3454
944 1 24 43.2 4.8 -11.5185
975 3 22.4 44.8 3.2 -10.8599
977 1 25.6 44.8 3.2 -11.3535
946 2 27.2 43.2 4.8 -9.56026
979 1 28.8 44.8 3.2 -11.5001
948 3 30.4 43.2 4.8 -11.1262
981 1 32 44.8 3.2 -11.5307
950 2 33.6 43.2 4.8 -9.61379
983 1 35.2 44.8 3.2 -11.5884
952 2 36.8 43.2 4.8 -9.61785
985 1 38.4 44.8 3.2 -11.6219
954 2 40 43.2 4.8 -9.57931
987 1 41.6 44.8 3.2 -11.4884
956 3 43.2 43.2 4.8 -10.9471
989 1 44.8 44.8 3.2 -11.4093
958 2 46.4 43.2 4.8 -9.56068
991 1 48 44.8 3.2 -11.2832
960 1 49.6 43.2 4.8 -11.2264
962 3 1.6 46.4 4.8 -10.9477
993 1 0 48 3.2 -11.305
964 3 4.8 46.4 4.8 -10.9941
995 1 3.2 48 3.2 -11.477
966 1 8 46.4 4.8 -11.2511
997 1 6.4 48 3.2 -11.4436
968 1 11.2 46.4 4.8 -11.3268
999 1 9.6 48 3.2 -11.3621
970 1 14.4 46.4 4.8 -11.4414
1001 1 12.8 48 3.2 -11.5089
972 1 17.6 46.4 4.8 -11.3727
1003 1 16 48 3.2 -11.4717
974 1 20.8 46.4 4.8 -11.5623
1005 1 19.2 48 3.2 -11.3436
976 1 24 46.4 4.8 -11.7093
1007 3 22.4 48 3.2 -10.9956
1009 3 25.6 48 3.2 -10.7971
978 1 27.2 46.4 4.8 -11.4241
1011 1 28.8 48 3.2 -11.367
980 3 30.4 46.4 4.8 -11.0849
1013 1 32 48 3.2 -11.6109
982 3 33.6 46.4 4.8 -11.0384
1015 1 35.2 48 3.2 -11.6815
984 3 36.8 46.4 4.8 -11.0818
1017 1 38.4 48 3.2 -11.7451
986 1 40 46.4 4.8 -11.4043
1019 1 41.6 48 3.2 -11.5831
988 2 43.2 46.4 4.8 -9.51348
1021 1 44.8 48 3.2 -11.3694
990 2 46.4 46.4 4.8 -9.45161
1023 2 48 48 3.2 -9.41454
992 1 49.6 46.4 4.8 -11.1537
994 1 1.6 49.6 4.8 -11.5089
996 1 4.8 49.6 4.8 -11.477
998 1 8 49.6 4.8 -11.3161
1000 1 11.2 49.6 4.8 -11.4057
1002 1 14.4 49.6 4.8 -11.4766
1004 1 17.6 49.6 4.8 -11.4438
1006 1 20.8 49.6 4.8 -11.5973
1008 1 24 49.6 4.8 -11.8124
1010 1 27.2 49.6 4.8 -11.477
1012 3 30.4 49.6 4.8 -10.9499
1014 2 33.6 49.6 4.8 -9.67969
1016 3 36.8 49.6 4.8 -11.2048
1018 3 40 49.6 4.8 -11.1241
1020 3 43.2 49.6 4.8 -10.9951
1022 1 46.4 49.6 4.8 -11.4256
1024 1 49.6 49.6 4.8 -11.4833
1025 3 0 0 6.4 -10.9502
1026 1 1.6 1.6 8 -11.6537
1027 3 3.2 0 6.4 -11.044
1028 1 4.8 1.6 8 -11.7532
1029 3 6.4 0 6.4 -11.0419
1030 1 8 1.6 8 -11.7151
1031 3 9.6 0 6.4 -10.8583
1032 1 11.2 1.6 8 -11.6293
1033 3 12.8 0 6.4 -10.9954
1034 1 14.4 1.6 8 -11.6296
1035 3 16 0 6.4 -10.9505
1036 1 17.6 1.6 8 -11.6192
1037 3 19.2 0 6.4 -11.0408
1038 1 20.8 1.6 8 -11.5971
1039 3 22.4 0 6.4 -11.2447
1040 1 24 1.6 8 -11.7203
1041 3 25.6 0 6.4 -11.0406
1042 1 27.2 1.6 8 -11.477
1043 1 28.8 0 6.4 -11.5081
1044 3 30.4 1.6 8 -11.0833
1045 1 32 0 6.4 -11.7811
1046 3 33.6 1.6 8 -11.2051
1047 1 35.2 0 6.4 -11.7811
1048 3 36.8 1.6 8 -10.9925
1049 1 38.4 0 6.4 -11.7451
1050 1 40 1.6 8 -11.3442
1051 1 41.6 0 6.4 -11.5973
1052 1 43.2 1.6 8 -11.3443
1053 1 44.8 0 6.4 -11.3659
1054 1 46.4 1.6 8 -11.4122
1055 3 48 0 6.4 -10.8468
1056 1 49.6 1.6 8 -11.6037
1057 2 0 3.2 6.4 -9.70694
1058 1 1.6 4.8 8 -11.7811
1059 2 3.2 3.2 6.4 -9.70671
1060 1 4.8 4.8 8 -11.8124
1061 3 6.4 3.2 6.4 -11.0858
1062 1 8 4.8 8 -11.5973
1063 1 9.6 3.2 6.4 -11.3442
1064 1 11.2 4.8 8 -11.4784
1065 1 12.8 3.2 6.4 -11.3365
1066 1 14.4 4.8 8 -11.4524
1067 1 16 3.2 6.4 -11.2678
1068 1 17.6 4.8 8 -11.2541
1069 2 19.2 3.2 6.4 -9.40354
1070 1 20.8 4.8 8 -11.3527
1071 3 22.4 3.2 6.4 -10.992
1072 1 24 4.8 8 -11.4037
1073 3 25.6 3.2 6.4 -10.8477
1074 1 27.2 4.8 8 -11.3777
1075 1 28.8 3.2 6.4 -11.5097
1076 3 30.4 4.8 8 -10.9925
1077 1 32 3.2 6.4 -11.8417
1078 3 33.6 4.8 8 -11.2435
1079 1 35.2 3.2 6.4 -11.8417
1080 3 36.8 4.8 8 -10.9936
1081 1 38.4 3.2 6.4 -11.6293
1082 1 40 4.8 8 -11.2467
1083 1 41.6 3.2 6.4 -11.5109
1084 1 43.2 4.8 8 -11.462
1085 1 44.8 3.2 6.4 -11.3758
1086 1 46.4 4.8 8 -11.6288
1087 3 48 3.2 6.4 -11.0869
1088 1 49.6 4.8 8 -11.8124
1089 3 0 6.4 6.4 -11.1664
1090 1 1.6 8 8 -11.6824
1091 3 3.2 6.4 6.4 -11.2054
1092 1 4.8 8 8 -11.5976
1093 3 6.4 6.4 6.4 -11.0836
1094 1 8 8 8 -11.3329
1095 1 9.6 6.4 6.4 -11.343
1096 1 11.2 8 8 -11.4126
1097 1 12.8 6.4 6.4 -11.5815
1098 3 14.4 8 8 -10.9537
1099 1 16 6.4 6.4 -11.4496
1100 3 17.6 8 8 -10.9596
1101 1 19.2 6.4 6.4 -11.52
1102 3 20.8 8 8 -11.0062