ITEM: TIMESTEP
0
ITEM: NUMBER OF ATOMS
8192
ITEM: BOX BOUNDS pp pp pp
0.0000000000000000e+00 5.1200000000000003e+01
0.0000000000000000e+00 5.1200000000000003e+01
0.0000000000000000e+00 5.1200000000000003e+01
ITEM: ATOMS id type x y z c_eng
1 3 0 0 0 -10.993
2 1 1.6 1.6 1.6 -11.8417
3 3 3.2 0 0 -10.9477
4 1 4.8 1.6 1.6 -11.7089
5 2 6.4 0 0 -9.575
6 1 8 1.6 1.6 -11.4673
7 1 9.6 0 0 -11.6637
8 3 11.2 1.6 1.6 -11.1272
9 1 12.8 0 0 -11.8124
10 3 14.4 1.6 1.6 -10.9439
11 1 16 0 0 -11.7451
12 1 17.6 1.6 1.6 -11.1789
13 1 19.2 0 0 -11.4966
14 1 20.8 1.6 1.6 -11.1428
15 1 22.4 0 0 -11.4419
16 1 24 1.6 1.6 -11.4098
17 1 25.6 0 0 -11.4272
18 1 27.2 1.6 1.6 -11.354
19 2 28.8 0 0 -9.56549
20 2 30.4 1.6 1.6 -9.56919
21 3 32 0 0 -10.9308
22 1 33.6 1.6 1.6 -11.3952
23 1 35.2 0 0 -11.4625
24 3 36.8 1.6 1.6 -11.1255
25 1 38.4 0 0 -11.5968
26 3 40 1.6 1.6 -11.167
27 1 41.6 0 0 -11.4539
28 3 43.2 1.6 1.6 -10.9464
29 1 44.8 0 0 -11.339
30 1 46.4 1.6 1.6 -11.5081
31 3 48 0 0 -11.0846
32 1 49.6 1.6 1.6 -11.8417
33 3 0 3.2 0 -11.2441
34 1 1.6 4.8 1.6 -11.8417
35 3 3.2 3.2 0 -11.1235
36 1 4.8 4.8 1.6 -11.8124
37 3 6.4 3.2 0 -11.1677
38 1 8 4.8 1.6 -11.4762
39 1 9.6 3.2 0 -11.5479
40 3 11.2 4.8 1.6 -10.9571
41 1 12.8 3.2 0 -11.7195
42 1 14.4 4.8 1.6 -11.4537
43 1 16 3.2 0 -11.5729
44 1 17.6 4.8 1.6 -11.1809
45 1 19.2 3.2 0 -11.3631
46 1 20.8 4.8 1.6 -11.2491
47 1 22.4 3.2 0 -11.4862
48 1 24 4.8 1.6 -11.365
49 1 25.6 3.2 0 -11.4415
50 1 27.2 4.8 1.6 -11.1911
51 1 28.8 3.2 0 -11.583
52 3 30.4 4.8 1.6 -11.0411
53 1 32 3.2 0 -11.543
54 3 33.6 4.8 1.6 -10.9917
55 1 35.2 3.2 0 -11.5241
56 3 36.8 4.8 1.6 -11.0824
57 1 38.4 3.2 0 -11.8124
58 2 40 4.8 1.6 -9.64686
59 1 41.6 3.2 0 -11.7831
60 3 43.2 4.8 1.6 -11.0435
61 1 44.8 3.2 0 -11.4779
62 1 46.4 4.8 1.6 -11.5077
63 3 48 3.2 0 -10.9933
64 1 49.6 4.8 1.6 -11.8417
65 3 0 6.4 0 -11.242
66 1 1.6 8 1.6 -11.7811
67 3 3.2 6.4 0 -11.2438
68 1 4.8 8 1.6 -11.5664
69 3 6.4 6.4 0 -10.9454
70 1 8 8 1.6 -11.3396
71 1 9.6 6.4 0 -11.442
72 3 11.2 8 1.6 -11.0849
73 1 12.8 6.4 0 -11.6867
74 3 14.4 8 1.6 -11.1696
75 2 16 6.4 0 -9.64709
76 1 17.6 8 1.6 -11.373
77 1 19.2 6.4 0 -11.3652
78 1 20.8 8 1.6 -11.3372
79 2 22.4 6.4 0 -9.59832
80 3 24 8 1.6 -10.9004
81 1 25.6 6.4 0 -11.5565
82 1 27.2 8 1.6 -11.2446
83 1 28.8 6.4 0 -11.5981
84 2 30.4 8 1.6 -9.64698
85 1 32 6.4 0 -11.7151
86 3 33.6 8 1.6 -11.0846
87 1 35.2 6.4 0 -11.6445
88 1 36.8 8 1.6 -11.3398
89 1 38.4 6.4 0 -11.5981
90 1 40 8 1.6 -11.3087
91 1 41.6 6.4 0 -11.7096
92 3 43.2 8 1.6 -11.0054
93 1 44.8 6.4 0 -11.5077
94 1 46.4 8 1.6 -11.5073
95 3 48 6.4 0 -11.0838
96 1 49.6 8 1.6 -11.8124
97 3 0 9.6 0 -11.2054
98 1 1.6 11.2 1.6 -11.7811
99 3 3.2 9.6 0 -11.0816
100 1 4.8 11.2 1.6 -11.48
101 1 6.4 9.6 0 -11.3448
102 3 8 11.2 1.6 -10.746
103 1 9.6 9.6 0 -11.4724
104 3 11.2 11.2 1.6 -11.1272
105 1 12.8 9.6 0 -11.6396
106 3 14.4 11.2 1.6 -11.1385
107 3 16 9.6 0 -11.1385
108 1 17.6 11.2 1.6 -11.4932
109 1 19.2 9.6 0 -11.332
110 3 20.8 11.2 1.6 -10.8958
111 1 22.4 9.6 0 -11.7224
112 3 24 11.2 1.6 -11.2441
113 1 25.6 9.6 0 -11.7448
114 3 27.2 11.2 1.6 -11.1238
115 1 28.8 9.6 0 -11.7096
116 3 30.4 11.2 1.6 -11.1658
117 1 32 9.6 0 -11.8124
118 3 33.6 11.2 1.6 -11.2438
119 1 35.2 9.6 0 -11.7451
120 3 36.8 11.2 1.6 -11.1238
121 1 38.4 9.6 0 -11.6045
122 3 40 11.2 1.6 -11.0819
123 1 41.6 9.6 0 -11.7203
124 3 43.2 11.2 1.6 -10.9943
125 1 44.8 9.6 0 -11.5085
126 1 46.4 11.2 1.6 -11.4052
127 3 48 9.6 0 -10.9941
128 1 49.6 11.2 1.6 -11.7151
129 3 0 12.8 0 -10.9914
130 1 1.6 14.4 1.6 -11.8414
131 3 3.2 12.8 0 -11.1261
132 1 4.8 14.4 1.6 -11.4709
133 1 6.4 12.8 0 -11.3352
134 2 8 14.4 1.6 -9.54524
135 1 9.6 12.8 0 -11.5181
136 3 11.2 14.4 1.6 -11.1279
137 1 12.8 12.8 0 -11.5661
138 2 14.4 14.4 1.6 -9.64273
139 2 16 12.8 0 -9.71218
140 3 17.6 14.4 1.6 -10.9435
141 1 19.2 12.8 0 -11.5871
142 3 20.8 14.4 1.6 -11.2062
143 1 22.4 12.8 0 -11.7811
144 3 24 14.4 1.6 -11.2435
145 1 25.6 12.8 0 -11.8417
146 3 27.2 14.4 1.6 -11.0822
147 1 28.8 12.8 0 -11.8124
148 2 30.4 14.4 1.6 -9.64803
149 1 32 12.8 0 -11.8124
150 3 33.6 14.4 1.6 -11.0381
151 1 35.2 12.8 0 -11.8415
152 3 36.8 14.4 1.6 -11.2032
153 1 38.4 12.8 0 -11.7811
154 3 40 14.4 1.6 -11.0813
155 1 41.6 12.8 0 -11.6513
156 1 43.2 14.4 1.6 -11.3146
157 1 44.8 12.8 0 -11.383
158 1 46.4 14.4 1.6 -11.2144
159 1 48 12.8 0 -11.3496
160 1 49.6 14.4 1.6 -11.5234
161 3 0 16 0 -10.9954
162 1 1.6 17.6 1.6 -11.5329
163 3 3.2 16 0 -10.9938
164 1 4.8 17.6 1.6 -11.3533
165 1 6.4 16 0 -11.4117
166 3 8 17.6 1.6 -10.9474
167 1 9.6 16 0 -11.6409
168 3 11.2 17.6 1.6 -11.1247
169 1 12.8 16 0 -11.6744
170 3 14.4 17.6 1.6 -11.1265
171 1 16 16 0 -11.6917
172 2 17.6 17.6 1.6 -9.70739
173 1 19.2 16 0 -11.7528
174 3 20.8 17.6 1.6 -11.2048
175 1 22.4 16 0 -11.8124
176 3 24 17.6 1.6 -10.993
177 1 25.6 16 0 -11.6293
178 1 27.2 17.6 1.6 -11.3764
179 1 28.8 16 0 -11.4792
180 1 30.4 17.6 1.6 -11.3684
181 1 32 16 0 -11.3611
182 1 33.6 17.6 1.6 -11.3475
183 1 35.2 16 0 -11.5725
184 1 36.8 17.6 1.6 -11.4162
185 1 38.4 16 0 -11.7147
186 3 40 17.6 1.6 -11.0824
187 1 41.6 16 0 -11.6824
188 3 43.2 17.6 1.6 -11.0813
189 1 44.8 16 0 -11.5659
190 2 46.4 17.6 1.6 -9.54461
191 1 48 16 0 -11.3642
192 1 49.6 17.6 1.6 -11.3634
193 1 0 19.2 0 -11.2607
194 2 1.6 20.8 1.6 -9.44537
195 1 3.2 19.2 0 -11.2264
196 1 4.8 20.8 1.6 -11.1859
197 1 6.4 19.2 0 -11.3764
198 2 8 20.8 1.6 -9.57968
199 1 9.6 19.2 0 -11.7506
200 3 11.2 20.8 1.6 -11.1257
201 1 12.8 19.2 0 -11.8124
202 2 14.4 20.8 1.6 -9.67712
203 1 16 19.2 0 -11.7223
204 2 17.6 20.8 1.6 -9.61428
205 1 19.2 19.2 0 -11.7511
206 3 20.8 20.8 1.6 -11.206
207 1 22.4 19.2 0 -11.8124
208 3 24 20.8 1.6 -10.9006
209 1 25.6 19.2 0 -11.4779
210 1 27.2 20.8 1.6 -11.5093
211 3 28.8 19.2 0 -10.8597
212 1 30.4 20.8 1.6 -11.7451
213 1 32 19.2 0 -11.2519
214 1 33.6 20.8 1.6 -11.5693
215 1 35.2 19.2 0 -11.2137
216 1 36.8 20.8 1.6 -11.4569
217 1 38.4 19.2 0 -11.5706
218 2 40 20.8 1.6 -9.67145
219 1 41.6 19.2 0 -11.8121
220 3 43.2 20.8 1.6 -11.0833
221 1 44.8 19.2 0 -11.8124
222 3 46.4 20.8 1.6 -11.044
223 1 48 19.2 0 -11.4507
224 2 49.6 20.8 1.6 -9.40445
225 1 0 22.4 0 -11.3205
226 2 1.6 24 1.6 -9.66767
227 2 3.2 22.4 0 -9.45131
228 1 4.8 24 1.6 -11.388
229 1 6.4 22.4 0 -11.374
230 2 8 24 1.6 -9.61417
231 1 9.6 22.4 0 -11.7511
232 3 11.2 24 1.6 -11.1251
233 1 12.8 22.4 0 -11.7811
234 2 14.4 24 1.6 -9.67724
235 1 16 22.4 0 -11.6897
236 2 17.6 24 1.6 -9.58689
237 1 19.2 22.4 0 -11.7511
238 3 20.8 24 1.6 -10.9946
239 1 22.4 22.4 0 -11.7503
240 2 24 24 1.6 -9.56914
241 1 25.6 22.4 0 -11.4582
242 1 27.2 24 1.6 -11.6205
243 3 28.8 22.4 0 -11.0833
244 1 30.4 24 1.6 -11.8417
245 3 32 22.4 0 -11.0816
246 1 33.6 24 1.6 -11.7511
247 2 35.2 22.4 0 -9.58231
248 1 36.8 24 1.6 -11.6555
249 3 38.4 22.4 0 -10.9855
250 1 40 24 1.6 -11.5857
251 1 41.6 22.4 0 -11.5416
252 1 43.2 24 1.6 -11.5077
253 1 44.8 22.4 0 -11.5073
254 1 46.4 24 1.6 -11.4762
255 1 48 22.4 0 -11.3648
256 1 49.6 24 1.6 -11.4453
257 3 0 25.6 0 -11.0356
259 3 3.2 25.6 0 -11.1083
261 1 6.4 25.6 0 -11.5815
263 1 9.6 25.6 0 -11.7831
265 1 12.8 25.6 0 -11.7831
267 1 16 25.6 0 -11.5686
269 1 19.2 25.6 0 -11.4415
271 1 22.4 25.6 0 -11.5541
273 2 25.6 25.6 0 -9.67004
275 3 28.8 25.6 0 -11.2057
277 3 32 25.6 0 -11.2423
279 3 35.2 25.6 0 -11.1645
281 3 38.4 25.6 0 -11.2441
283 3 41.6 25.6 0 -11.125
285 3 44.8 25.6 0 -11.1264
287 3 48 25.6 0 -11.0847
258 2 1.6 27.2 1.6 -9.50033
289 1 0 28.8 0 -11.3147
260 3 4.8 27.2 1.6 -11.088
291 1 3.2 28.8 0 -11.4464
262 3 8 27.2 1.6 -11.2074
293 1 6.4 28.8 0 -11.7446
264 3 11.2 27.2 1.6 -11.0387
295 1 9.6 28.8 0 -11.6824
266 3 14.4 27.2 1.6 -11.1247
297 1 12.8 28.8 0 -11.6474
268 1 17.6 27.2 1.6 -11.3758
299 1 16 28.8 0 -11.4912
270 1 20.8 27.2 1.6 -11.4473
301 2 19.2 28.8 0 -9.38902
272 1 24 27.2 1.6 -11.5888
303 3 22.4 28.8 0 -11.0381
305 3 25.6 28.8 0 -11.206
274 1 27.2 27.2 1.6 -11.7808
307 3 28.8 28.8 0 -11.1241
276 1 30.4 27.2 1.6 -11.8417
309 3 32 28.8 0 -11.2054
278 1 33.6 27.2 1.6 -11.7811
311 3 35.2 28.8 0 -11.2048
280 1 36.8 27.2 1.6 -11.7811
313 3 38.4 28.8 0 -11.2417
282 1 40 27.2 1.6 -11.8417
315 3 41.6 28.8 0 -11.242
284 1 43.2 27.2 1.6 -11.8124
317 3 44.8 28.8 0 -11.2033
286 1 46.4 27.2 1.6 -11.7846
319 3 48 28.8 0 -11.1244
288 1 49.6 27.2 1.6 -11.5538
290 1 1.6 30.4 1.6 -11.4248
321 2 0 32 0 -9.54462
292 3 4.8 30.4 1.6 -11.0427
323 1 3.2 32 0 -11.4267
294 3 8 30.4 1.6 -10.9925
325 1 6.4 32 0 -11.7447
296 1 11.2 30.4 1.6 -11.3191
327 1 9.6 32 0 -11.7096
298 2 14.4 30.4 1.6 -9.53683
329 1 12.8 32 0 -11.6753
300 1 17.6 30.4 1.6 -11.4489
331 1 16 32 0 -11.4414
302 1 20.8 30.4 1.6 -11.7563
333 2 19.2 32 0 -9.47434
304 1 24 30.4 1.6 -11.8122
335 3 22.4 32 0 -11.0833
337 3 25.6 32 0 -11.0822
306 1 27.2 30.4 1.6 -11.8124
339 3 28.8 32 0 -11.0424
308 1 30.4 30.4 1.6 -11.7096
341 3 32 32 0 -11.0833
310 1 33.6 30.4 1.6 -11.5981
343 3 35.2 32 0 -11.0816
312 1 36.8 30.4 1.6 -11.7096
345 3 38.4 32 0 -11.2065
314 1 40 30.4 1.6 -11.8122
347 3 41.6 32 0 -11.2054
316 1 43.2 30.4 1.6 -11.7846
349 3 44.8 32 0 -11.2423
318 1 46.4 30.4 1.6 -11.8124
351 3 48 32 0 -11.2042
320 1 49.6 30.4 1.6 -11.597
322 1 1.6 33.6 1.6 -11.5294
353 3 0 35.2 0 -11.0825
324 1 4.8 33.6 1.6 -11.3759
355 1 3.2 35.2 0 -11.3442
326 3 8 33.6 1.6 -10.9936
357 1 6.4 35.2 0 -11.6296
328 3 11.2 33.6 1.6 -10.9928
359 1 9.6 35.2 0 -11.8417
330 3 14.4 33.6 1.6 -10.9464
361 1 12.8 35.2 0 -11.8124
332 1 17.6 33.6 1.6 -11.2953
363 1 16 35.2 0 -11.604
334 1 20.8 33.6 1.6 -11.4577
365 1 19.2 35.2 0 -11.3689
336 1 24 33.6 1.6 -11.6301
367 1 22.4 35.2 0 -11.2474
369 1 25.6 35.2 0 -11.2216
338 1 27.2 33.6 1.6 -11.6509
371 2 28.8 35.2 0 -9.55927
340 1 30.4 33.6 1.6 -11.5481
373 2 32 35.2 0 -9.63728
342 1 33.6 33.6 1.6 -11.4699
375 2 35.2 35.2 0 -9.6301
344 1 36.8 33.6 1.6 -11.5556
377 2 38.4 35.2 0 -9.40362
346 1 40 33.6 1.6 -11.6187
379 3 41.6 35.2 0 -10.9581
348 1 43.2 33.6 1.6 -11.7093
381 3 44.8 35.2 0 -11.0821
350 1 46.4 33.6 1.6 -11.8417
383 3 48 35.2 0 -11.2432
352 1 49.6 33.6 1.6 -11.8124
354 1 1.6 36.8 1.6 -11.5617
385 3 0 38.4 0 -11.0833
356 1 4.8 36.8 1.6 -11.2919
387 1 3.2 38.4 0 -11.3455
358 3 8 36.8 1.6 -11.1264
389 1 6.4 38.4 0 -11.6296
360 3 11.2 36.8 1.6 -11.1651
391 1 9.6 38.4 0 -11.8124
362 3 14.4 36.8 1.6 -11.2062
393 1 12.8 38.4 0 -11.7831
364 3 17.6 36.8 1.6 -10.9006
395 1 16 38.4 0 -11.7831
366 1 20.8 36.8 1.6 -11.3806
397 1 19.2 38.4 0 -11.5973
368 1 24 36.8 1.6 -11.2899
399 1 22.4 38.4 0 -11.4082
401 1 25.6 38.4 0 -11.2893
370 1 27.2 36.8 1.6 -11.3842
403 1 28.8 38.4 0 -11.4075
372 2 30.4 36.8 1.6 -9.60475
405 1 32 38.4 0 -11.5325
374 2 33.6 36.8 1.6 -9.64083
407 1 35.2 38.4 0 -11.3675
376 1 36.8 36.8 1.6 -11.3211
409 1 38.4 38.4 0 -11.2484
378 1 40 36.8 1.6 -11.3876
411 3 41.6 38.4 0 -10.9539
380 1 43.2 36.8 1.6 -11.4127
413 1 44.8 38.4 0 -11.3452
382 1 46.4 36.8 1.6 -11.5973
415 3 48 38.4 0 -11.0373
384 1 49.6 36.8 1.6 -11.8124
386 1 1.6 40 1.6 -11.4579
417 2 0 41.6 0 -9.63126
388 1 4.8 40 1.6 -11.2597
419 1 3.2 41.6 0 -11.4097
390 3 8 40 1.6 -11.0864
421 1 6.4 41.6 0 -11.681
392 2 11.2 40 1.6 -9.67712
423 1 9.6 41.6 0 -11.7532
394 3 14.4 40 1.6 -11.1676
425 1 12.8 41.6 0 -11.7811
396 2 17.6 40 1.6 -9.54449
427 1 16 41.6 0 -11.8124
398 1 20.8 40 1.6 -11.343
429 1 19.2 41.6 0 -11.5649
400 1 24 40 1.6 -11.3782
431 1 22.4 41.6 0 -11.4796
433 1 25.6 41.6 0 -11.5968
402 3 27.2 40 1.6 -10.905
435 1 28.8 41.6 0 -11.611
404 2 30.4 40 1.6 -9.61465
437 1 32 41.6 0 -11.493
406 3 33.6 40 1.6 -10.9504
439 1 35.2 41.6 0 -11.3446
408 1 36.8 40 1.6 -11.2207
441 1 38.4 41.6 0 -11.3726
410 2 40 40 1.6 -9.52681
443 3 41.6 41.6 0 -11.0799
412 1 43.2 40 1.6 -11.4047
445 2 44.8 41.6 0 -9.50594
414 1 46.4 40 1.6 -11.4032
447 2 48 41.6 0 -9.58207
416 1 49.6 40 1.6 -11.6106
418 1 1.6 43.2 1.6 -11.4404
449 2 0 44.8 0 -9.57105
420 2 4.8 43.2 1.6 -9.51334
451 1 3.2 44.8 0 -11.5838
422 3 8 43.2 1.6 -11.1259
453 1 6.4 44.8 0 -11.7532
424 2 11.2 43.2 1.6 -9.61404
455 1 9.6 44.8 0 -11.7846
426 3 14.4 43.2 1.6 -11.0827
457 1 12.8 44.8 0 -11.8124
428 3 17.6 43.2 1.6 -10.9465
459 1 16 44.8 0 -11.8417
430 1 20.8 43.2 1.6 -11.3031
461 1 19.2 44.8 0 -11.5976
432 1 24 43.2 1.6 -11.3031
463 1 22.4 44.8 0 -11.4428
465 1 25.6 44.8 0 -11.4262
434 2 27.2 43.2 1.6 -9.62319
467 2 28.8 44.8 0 -9.64365
436 3 30.4 43.2 1.6 -11.0747
469 3 32 44.8 0 -11.0347
438 2 33.6 43.2 1.6 -9.67154
471 1 35.2 44.8 0 -11.3486
440 3 36.8 43.2 1.6 -10.8982
473 1 38.4 44.8 0 -11.3167
442 2 40 43.2 1.6 -9.60396
475 2 41.6 44.8 0 -9.47943
444 1 43.2 43.2 1.6 -11.4922
477 3 44.8 44.8 0 -10.9973
446 1 46.4 43.2 1.6 -11.4071
479 3 48 44.8 0 -11.0394
448 1 49.6 43.2 1.6 -11.4706
450 1 1.6 46.4 1.6 -11.3109
481 1 0 48 0 -11.3045
452 2 4.8 46.4 1.6 -9.51361
483 1 3.2 48 0 -11.3653
454 3 8 46.4 1.6 -11.1674
485 1 6.4 48 0 -11.5894
456 3 11.2 46.4 1.6 -11.0827
487 1 9.6 48 0 -11.7508
458 3 14.4 46.4 1.6 -11.1261
489 1 12.8 48 0 -11.8124
460 3 17.6 46.4 1.6 -10.9938
491 1 16 48 0 -11.8417
462 1 20.8 46.4 1.6 -11.3371
493 1 19.2 48 0 -11.6293
464 1 24 46.4 1.6 -11.3239
495 1 22.4 48 0 -11.5097
497 1 25.6 48 0 -11.3461
466 1 27.2 46.4 1.6 -11.2895
499 3 28.8 48 0 -10.8513
468 1 30.4 46.4 1.6 -11.5433
501 3 32 48 0 -10.9954
470 1 33.6 46.4 1.6 -11.325
503 1 35.2 48 0 -11.3782
472 3 36.8 46.4 1.6 -10.8101
505 1 38.4 48 0 -11.3664
474 1 40 46.4 1.6 -11.3232
507 1 41.6 48 0 -11.2685
476 1 43.2 46.4 1.6 -11.3626
509 3 44.8 48 0 -10.8455
478 1 46.4 46.4 1.6 -11.6145
511 3 48 48 0 -11.1272
480 1 49.6 46.4 1.6 -11.4685
482 1 1.6 49.6 1.6 -11.393
484 1 4.8 49.6 1.6 -11.3917
486 2 8 49.6 1.6 -9.48223
488 3 11.2 49.6 1.6 -11.0427
490 3 14.4 49.6 1.6 -11.1258
492 3 17.6 49.6 1.6 -10.9462
494 1 20.8 49.6 1.6 -11.3377
496 1 24 49.6 1.6 -11.4482
498 1 27.2 49.6 1.6 -11.354
500 1 30.4 49.6 1.6 -11.5236
502 1 33.6 49.6 1.6 -11.3765
504 3 36.8 49.6 1.6 -10.9507
506 2 40 49.6 1.6 -9.42454
508 1 43.2 49.6 1.6 -11.2854
510 1 46.4 49.6 1.6 -11.5709
512 1 49.6 49.6 1.6 -11.6297
513 3 0 0 3.2 -11.1256
514 1 1.6 1.6 4.8 -11.8124
515 3 3.2 0 3.2 -10.993
516 1 4.8 1.6 4.8 -11.7451
517 1 6.4 0 3.2 -11.3522
518 1 8 1.6 4.8 -11.503
519 1 9.6 0 3.2 -11.4622
520 3 11.2 1.6 4.8 -11.0744
521 1 12.8 0 3.2 -11.6733
522 2 14.4 1.6 4.8 -9.66827
523 1 16 0 3.2 -11.5442
524 1 17.6 1.6 4.8 -11.4562
525 1 19.2 0 3.2 -11.2587
526 1 20.8 1.6 4.8 -11.568
527 2 22.4 0 3.2 -9.50684
528 1 24 1.6 4.8 -11.7503
529 3 25.6 0 3.2 -10.8502
530 1 27.2 1.6 4.8 -11.4405
531 1 28.8 0 3.2 -11.3932
532 2 30.4 1.6 4.8 -9.61533
533 1 32 0 3.2 -11.5575
534 3 33.6 1.6 4.8 -11.081
535 1 35.2 0 3.2 -11.6293
536 3 36.8 1.6 4.8 -11.2054
537 1 38.4 0 3.2 -11.8124
538 3 40 1.6 4.8 -11.1253
539 1 41.6 0 3.2 -11.6753
540 3 43.2 1.6 4.8 -10.996
541 1 44.8 0 3.2 -11.4357
542 1 46.4 1.6 4.8 -11.5967
543 3 48 0 3.2 -11.1668
544 1 49.6 1.6 4.8 -11.7844
545 3 0 3.2 3.2 -11.2033
546 1 1.6 4.8 4.8 -11.8124
547 3 3.2 3.2 3.2 -11.2429
548 1 4.8 4.8 4.8 -11.7811
549 3 6.4 3.2 3.2 -10.9494
550 1 8 4.8 4.8 -11.4438
551 1 9.6 3.2 3.2 -11.5077
552 3 11.2 4.8 4.8 -10.9961
553 1 12.8 3.2 3.2 -11.7198
554 3 14.4 4.8 4.8 -10.9579
555 1 16 3.2 3.2 -11.3822
556 3 17.6 4.8 4.8 -10.9546
557 1 19.2 3.2 3.2 -11.2548
558 2 20.8 4.8 4.8 -9.63491
559 2 22.4 3.2 3.2 -9.44107
560 1 24 4.8 4.8 -11.5116
561 2 25.6 3.2 3.2 -9.38992
562 1 27.2 4.8 4.8 -11.2282
563 1 28.8 3.2 3.2 -11.4076
564 3 30.4 4.8 4.8 -11.0389
565 1 32 3.2 3.2 -11.6817
566 3 33.6 4.8 4.8 -11.2435
567 1 35.2 3.2 3.2 -11.7451
568 3 36.8 4.8 4.8 -11.1657
569 1 38.4 3.2 3.2 -11.8124
570 3 40 4.8 4.8 -11.084
571 1 41.6 3.2 3.2 -11.7844
572 2 43.2 4.8 4.8 -9.63163
573 1 44.8 3.2 3.2 -11.5227
574 1 46.4 4.8 4.8 -11.5505
575 3 48 3.2 3.2 -11.1258
576 1 49.6 4.8 4.8 -11.8124
577 3 0 6.4 3.2 -11.2039
578 1 1.6 8 4.8 -11.7511
579 3 3.2 6.4 3.2 -11.1654
580 1 4.8 8 4.8 -11.5823
581 2 6.4 6.4 3.2 -9.50634
582 1 8 8 4.8 -11.3472
583 1 9.6 6.4 3.2 -11.4725
584 3 11.2 8 4.8 -10.9941
585 1 12.8 6.4 3.2 -11.7443
586 3 14.4 8 4.8 -11.2002
587 1 16 6.4 3.2 -11.6282
588 3 17.6 8 4.8 -11.1295
589 1 19.2 6.4 3.2 -11.3603
590 3 20.8 8 4.8 -10.9948
591 1 22.4 6.4 3.2 -11.4729
592 2 24 8 4.8 -9.54461
593 1 25.6 6.4 3.2 -11.1973
594 1 27.2 8 4.8 -11.247
595 1 28.8 6.4 3.2 -11.3649
596 3 30.4 8 4.8 -11.0816
597 1 32 6.4 3.2 -11.8124
598 3 33.6 8 4.8 -11.2045
599 1 35.2 6.4 3.2 -11.7096
600 2 36.8 8 4.8 -9.61366
601 1 38.4 6.4 3.2 -11.532
602 2 40 8 4.8 -9.58639
603 1 41.6 6.4 3.2 -11.648
604 3 43.2 8 4.8 -10.9978
605 1 44.8 6.4 3.2 -11.4757
606 1 46.4 8 4.8 -11.5081
607 3 48 6.4 3.2 -11.1261
608 1 49.6 8 4.8 -11.8124
609 2 0 9.6 3.2 -9.70671
610 1 1.6 11.2 4.8 -11.6513
611 2 3.2 9.6 3.2 -9.58677
612 1 4.8 11.2 4.8 -11.373
613 1 6.4 9.6 3.2 -11.3298
614 2 8 11.2 4.8 -9.63165
615 1 9.6 9.6 3.2 -11.597
616 3 11.2 11.2 4.8 -11.0869
617 1 12.8 9.6 3.2 -11.7966
618 1 14.4 11.2 4.8 -11.4059
619 3 16 9.6 3.2 -11.0693
620 1 17.6 11.2 4.8 -11.411
621 1 19.2 9.6 3.2 -11.4739
622 2 20.8 11.2 4.8 -9.67099
623 1 22.4 9.6 3.2 -11.6965
624 3 24 11.2 4.8 -11.1663
625 1 25.6 9.6 3.2 -11.5981
626 3 27.2 11.2 4.8 -11.1235
627 1 28.8 9.6 3.2 -11.5981
628 3 30.4 11.2 4.8 -11.2438
629 1 32 9.6 3.2 -11.8124
630 3 33.6 11.2 4.8 -11.1226
631 1 35.2 9.6 3.2 -11.7096
632 3 36.8 11.2 4.8 -11.2057
633 1 38.4 9.6 3.2 -11.5632
634 3 40 11.2 4.8 -11.1654
635 1 41.6 9.6 3.2 -11.7096
636 3 43.2 11.2 4.8 -11.0847
637 1 44.8 9.6 3.2 -11.5073
638 1 46.4 11.2 4.8 -11.5077
639 3 48 9.6 3.2 -11.0878
640 1 49.6 11.2 4.8 -11.8124
641 3 0 12.8 3.2 -11.2062
642 1 1.6 14.4 4.8 -11.6765
643 3 3.2 12.8 3.2 -10.9459
644 1 4.8 14.4 4.8 -11.4506
645 1 6.4 12.8 3.2 -11.4478
646 3 8 14.4 4.8 -10.9925
647 1 9.6 12.8 3.2 -11.7846
648 3 11.2 14.4 4.8 -10.9922
649 1 12.8 12.8 3.2 -11.5962
650 1 14.4 14.4 4.8 -11.2589
651 1 16 12.8 3.2 -11.4567
652 1 17.6 14.4 4.8 -11.4108
653 1 19.2 12.8 3.2 -11.5706
654 3 20.8 14.4 4.8 -11.0884
655 1 22.4 12.8 3.2 -11.8121
656 3 24 14.4 4.8 -10.9922
657 1 25.6 12.8 3.2 -11.8417
658 3 27.2 14.4 4.8 -11.127
659 1 28.8 12.8 3.2 -11.8124
660 3 30.4 14.4 4.8 -10.9447
661 1 32 12.8 3.2 -11.7199
662 1 33.6 14.4 4.8 -11.4551
663 1 35.2 12.8 3.2 -11.7817
664 3 36.8 14.4 4.8 -11.0832
665 1 38.4 12.8 3.2 -11.8415
666 3 40 14.4 4.8 -11.2057
667 1 41.6 12.8 3.2 -11.7096
668 2 43.2 14.4 4.8 -9.54396
669 1 44.8 12.8 3.2 -11.3675
670 1 46.4 14.4 4.8 -11.3455
671 3 48 12.8 3.2 -10.8459
672 1 49.6 14.4 4.8 -11.6779
673 3 0 16 3.2 -11.1876
674 3 1.6 17.6 4.8 -11.2528
675 3 3.2 16 3.2 -11.1148
676 3 4.8 17.6 4.8 -11.0384
677 1 6.4 16 3.2 -11.5645
678 2 8 17.6 4.8 -9.64745
679 1 9.6 16 3.2 -11.681
680 1 11.2 17.6 4.8 -11.4028
681 1 12.8 16 3.2 -11.6255
682 3 14.4 17.6 4.8 -10.9925
683 1 16 16 3.2 -11.5727
684 3 17.6 17.6 4.8 -11.0392
685 1 19.2 16 3.2 -11.7197
686 3 20.8 17.6 4.8 -11.0858
687 1 22.4 16 3.2 -11.7447
688 1 24 17.6 4.8 -11.3753
689 1 25.6 16 3.2 -11.5241
690 1 27.2 17.6 4.8 -11.3625
691 1 28.8 16 3.2 -11.4779
692 1 30.4 17.6 4.8 -11.5089
693 1 32 16 3.2 -11.4342
694 1 33.6 17.6 4.8 -11.4459
695 2 35.2 16 3.2 -9.56447
696 1 36.8 17.6 4.8 -11.5344
697 1 38.4 16 3.2 -11.6786
698 3 40 17.6 4.8 -11.0813
699 1 41.6 16 3.2 -11.7096
700 3 43.2 17.6 4.8 -11.2065
701 1 44.8 16 3.2 -11.455
702 3 46.4 17.6 4.8 -10.8999
703 1 48 16 3.2 -11.4133
704 2 49.6 17.6 4.8 -9.67248
705 1 0 19.2 3.2 -11.6058
706 3 1.6 20.8 4.8 -11.1671
707 1 3.2 19.2 3.2 -11.5167
708 2 4.8 20.8 4.8 -9.61429
709 1 6.4 19.2 3.2 -11.5435
710 3 8 20.8 4.8 -11.0832
711 1 9.6 19.2 3.2 -11.648
712 2 11.2 20.8 4.8 -9.62058
713 1 12.8 19.2 3.2 -11.681
714 3 14.4 20.8 4.8 -11.1654
715 1 16 19.2 3.2 -11.7511
716 3 17.6 20.8 4.8 -11.206
717 1 19.2 19.2 3.2 -11.7809
718 3 20.8 20.8 4.8 -11.1216
719 1 22.4 19.2 3.2 -11.6784
720 1 24 20.8 4.8 -11.4449
721 1 25.6 19.2 3.2 -11.3455
722 1 27.2 20.8 4.8 -11.5351
723 3 28.8 19.2 3.2 -10.9956
724 1 30.4 20.8 4.8 -11.8124
725 3 32 19.2 3.2 -10.9936
726 1 33.6 20.8 4.8 -11.7205
727 3 35.2 19.2 3.2 -10.9438
728 2 36.8 20.8 4.8 -9.49505
729 1 38.4 19.2 3.2 -11.5487
730 3 40 20.8 4.8 -11.0402
731 1 41.6 19.2 3.2 -11.8124
732 3 43.2 20.8 4.8 -11.1253
733 1 44.8 19.2 3.2 -11.8124
734 3 46.4 20.8 4.8 -11.1261
735 1 48 19.2 3.2 -11.6413
736 3 49.6 20.8 4.8 -11.1274
737 1 0 22.4 3.2 -11.61
738 3 1.6 24 4.8 -10.9938
739 1 3.2 22.4 3.2 -11.5548
740 2 4.8 24 4.8 -9.58677
741 1 6.4 22.4 3.2 -11.4969
742 3 8 24 4.8 -11.126
743 1 9.6 22.4 3.2 -11.723
744 2 11.2 24 4.8 -9.67922
745 1 12.8 22.4 3.2 -11.723
746 3 14.4 24 4.8 -11.166
747 1 16 22.4 3.2 -11.7187
748 3 17.6 24 4.8 -10.9928
749 1 19.2 22.4 3.2 -11.7528
750 2 20.8 24 4.8 -9.58848
751 1 22.4 22.4 3.2 -11.619
752 1 24 24 4.8 -11.4316
753 1 25.6 22.4 3.2 -11.3604
754 1 27.2 24 4.8 -11.6473
755 3 28.8 22.4 3.2 -11.0819
756 1 30.4 24 4.8 -11.7846
757 3 32 22.4 3.2 -11.2063
758 1 33.6 24 4.8 -11.5303
759 2 35.2 22.4 3.2 -9.56086
760 1 36.8 24 4.8 -11.3959
761 1 38.4 22.4 3.2 -11.4691
762 1 40 24 4.8 -11.3752
763 1 41.6 22.4 3.2 -11.4766
764 1 43.2 24 4.8 -11.3746
765 1 44.8 22.4 3.2 -11.5089
766 1 46.4 24 4.8 -11.3933
767 1 48 22.4 3.2 -11.5188
768 2 49.6 24 4.8 -9.52402
769 1 0 25.6 3.2 -11.4474
771 1 3.2 25.6 3.2 -11.608
773 1 6.4 25.6 3.2 -11.6747
775 1 9.6 25.6 3.2 -11.7532
777 1 12.8 25.6 3.2 -11.7529
779 1 16 25.6 3.2 -11.617
781 1 19.2 25.6 3.2 -11.4496
783 1 22.4 25.6 3.2 -11.3482
785 2 25.6 25.6 3.2 -9.59671
787 3 28.8 25.6 3.2 -11.206
789 3 32 25.6 3.2 -11.1654
791 2 35.2 25.6 3.2 -9.58231
793 3 38.4 25.6 3.2 -10.9459
795 3 41.6 25.6 3.2 -10.9954
797 3 44.8 25.6 3.2 -10.9004
799 2 48 25.6 3.2 -9.52491
770 1 1.6 27.2 4.8 -11.291
801 1 0 28.8 3.2 -11.2918
772 3 4.8 27.2 4.8 -10.8958
803 1 3.2 28.8 3.2 -11.5942
774 3 8 27.2 4.8 -11.0833
805 1 6.4 28.8 3.2 -11.7093
776 2 11.2 27.2 4.8 -9.62169
807 1 9.6 28.8 3.2 -11.4963
778 3 14.4 27.2 4.8 -11.0427
809 1 12.8 28.8 3.2 -11.4909
780 1 17.6 27.2 4.8 -11.3869
811 2 16 28.8 3.2 -9.53109
782 1 20.8 27.2 4.8 -11.3508
813 3 19.2 28.8 3.2 -10.8948
784 1 24 27.2 4.8 -11.4926
815 2 22.4 28.8 3.2 -9.62252
817 3 25.6 28.8 3.2 -11.1263
786 1 27.2 27.2 4.8 -11.6804
819 3 28.8 28.8 3.2 -11.0822
788 1 30.4 27.2 4.8 -11.6824
821 3 32 28.8 3.2 -11.0392
790 1 33.6 27.2 4.8 -11.4969
823 2 35.2 28.8 3.2 -9.51348
792 1 36.8 27.2 4.8 -11.4071
825 3 38.4 28.8 3.2 -11.0844
794 1 40 27.2 4.8 -11.5085
827 3 41.6 28.8 3.2 -11.0376
796 1 43.2 27.2 4.8 -11.5645
829 2 44.8 28.8 3.2 -9.73595
798 1 46.4 27.2 4.8 -11.5421
831 3 48 28.8 3.2 -10.996
800 1 49.6 27.2 4.8 -11.2742
802 2 1.6 30.4 4.8 -9.49438
833 3 0 32 3.2 -10.9979
804 2 4.8 30.4 4.8 -9.55631
835 2 3.2 32 3.2 -9.57367
806 1 8 30.4 4.8 -11.3158
837 1 6.4 32 3.2 -11.4257
808 1 11.2 30.4 4.8 -11.2297
839 1 9.6 32 3.2 -11.4097
810 1 14.4 30.4 4.8 -11.3813
841 1 12.8 32 3.2 -11.367
812 1 17.6 30.4 4.8 -11.3647
843 1 16 32 3.2 -11.3349
814 2 20.8 30.4 4.8 -9.62445
845 2 19.2 32 3.2 -9.46777
816 1 24 30.4 4.8 -11.5837
847 3 22.4 32 3.2 -11.2045
849 3 25.6 32 3.2 -11.0833
818 1 27.2 30.4 4.8 -11.4554
851 2 28.8 32 3.2 -9.50621
820 1 30.4 30.4 4.8 -11.3375
853 1 32 32 3.2 -11.1444
822 1 33.6 30.4 4.8 -11.2087
855 1 35.2 32 3.2 -11.221
824 1 36.8 30.4 4.8 -11.3659
857 3 38.4 32 3.2 -10.8979
826 1 40 30.4 4.8 -11.4899
859 2 41.6 32 3.2 -9.63084
828 1 43.2 30.4 4.8 -11.5721
861 3 44.8 32 3.2 -11.1654
830 1 46.4 30.4 4.8 -11.7846
863 3 48 32 3.2 -11.2441
832 1 49.6 30.4 4.8 -11.5588
834 1 1.6 33.6 4.8 -11.6671
865 3 0 35.2 3.2 -11.2063
836 1 4.8 33.6 4.8 -11.4051
867 2 3.2 35.2 3.2 -9.46882
838 1 8 33.6 4.8 -11.389
869 1 6.4 35.2 3.2 -11.4543
840 1 11.2 33.6 4.8 -11.343
871 1 9.6 35.2 3.2 -11.5965
842 1 14.4 33.6 4.8 -11.3384
873 1 12.8 35.2 3.2 -11.5973
844 1 17.6 33.6 4.8 -11.3148
875 1 16 35.2 3.2 -11.4949
846 1 20.8 33.6 4.8 -11.6256
877 1 19.2 35.2 3.2 -11.3911
848 1 24 33.6 4.8 -11.5971
879 3 22.4 35.2 3.2 -10.9948
881 3 25.6 35.2 3.2 -10.8053
850 1 27.2 33.6 4.8 -11.4076
883 2 28.8 35.2 3.2 -9.57191
852 1 30.4 33.6 4.8 -11.2804
885 1 32 35.2 3.2 -11.4835
854 1 33.6 33.6 4.8 -11.14
887 2 35.2 35.2 3.2 -9.47893
856 1 36.8 33.6 4.8 -11.3973
889 1 38.4 35.2 3.2 -11.4418
858 2 40 33.6 4.8 -9.45919
891 1 41.6 35.2 3.2 -11.3484
860 1 43.2 33.6 4.8 -11.5522
893 3 44.8 35.2 3.2 -10.9933
862 1 46.4 33.6 4.8 -11.8417
895 3 48 35.2 3.2 -11.2051
864 1 49.6 33.6 4.8 -11.7444
866 1 1.6 36.8 4.8 -11.722
897 3 0 38.4 3.2 -11.2035
868 1 4.8 36.8 4.8 -11.4287
899 2 3.2 38.4 3.2 -9.36148
870 3 8 36.8 4.8 -11.0874
901 1 6.4 38.4 3.2 -11.4738
872 2 11.2 36.8 4.8 -9.58701
903 1 9.6 38.4 3.2 -11.7511
874 3 14.4 36.8 4.8 -11.0406
905 1 12.8 38.4 3.2 -11.7511
876 2 17.6 36.8 4.8 -9.64453
907 1 16 38.4 3.2 -11.6749
878 1 20.8 36.8 4.8 -11.6504
909 1 19.2 38.4 3.2 -11.3838
880 1 24 36.8 4.8 -11.5241
911 3 22.4 38.4 3.2 -10.8602
913 1 25.6 38.4 3.2 -11.38
882 1 27.2 36.8 4.8 -11.3899
915 1 28.8 38.4 3.2 -11.6216
884 3 30.4 36.8 4.8 -10.9952
917 1 32 38.4 3.2 -11.7501
886 3 33.6 36.8 4.8 -11.1663
919 1 35.2 38.4 3.2 -11.6036
888 3 36.8 36.8 4.8 -10.9947
921 1 38.4 38.4 3.2 -11.4184
890 2 40 36.8 4.8 -9.40472
923 1 41.6 38.4 3.2 -11.4421
892 1 43.2 36.8 4.8 -11.3467
925 1 44.8 38.4 3.2 -11.3268
894 1 46.4 36.8 4.8 -11.5824
927 2 48 38.4 3.2 -9.57015
896 1 49.6 36.8 4.8 -11.7087
898 2 1.6 40 4.8 -9.55214
929 2 0 41.6 3.2 -9.53613
900 1 4.8 40 4.8 -11.3266
931 1 3.2 41.6 3.2 -11.424
902 3 8 40 4.8 -11.044
933 1 6.4 41.6 3.2 -11.5976
904 2 11.2 40 4.8 -9.48034
935 1 9.6 41.6 3.2 -11.6454
906 3 14.4 40 4.8 -10.9006
937 1 12.8 41.6 3.2 -11.5351
908 1 17.6 40 4.8 -11.3623
939 1 16 41.6 3.2 -11.4902
910 1 20.8 40 4.8 -11.597
941 1 19.2 41.6 3.2 -11.3402
912 1 24 40 4.8 -11.5085
943 3 22.4 41.6 3.2 -10.8068
945 1 25.6 41.6 3.2 -11.4775
914 3 27.2 40 4.8 -10.9946
947 1 28.8 41.6 3.2 -11.7844
916 3 30.4 40 4.8 -11.2048
949 1 32 41.6 3.2 -11.7842
918 3 33.6 40 4.8 -11.2054
951 1 35.2 41.6 3.2 -11.6847
920 2 36.8 40 4.8 -9.62096
953 1 38.4 41.6 3.2 -11.6471
922 3 40 40 4.8 -11.1272
955 1 41.6 41.6 3.2 -11.6461
924 3 43.2 40 4.8 -10.9944
957 1 44.8 41.6 3.2 -11.441
926 3 46.4 40 4.8 -10.9066
959 1 48 41.6 3.2 -11.3246
928 1 49.6 40 4.8 -11.4781
930 2 1.6 43.2 4.8 -9.60587
961 2 0 44.8 3.2 -9.41211
932 3 4.8 43.2 4.8 -10.9001
963 1 3.2 44.8 3.2 -11.5545
934 3 8 43.2 4.8 -10.9946
965 1 6.4 44.8 3.2 -11.7807
936 1 11.2 43.2 4.8 -11.2826
967 1 9.6 44.8 3.2 -11.5965
938 1 14.4 43.2 4.8 -11.3776
969 1 12.8 44.8 3.2 -11.4792
940 1 17.6 43.2 4.8 -11.3779
971 1 16 44.8 3.2 -11.5093
942 1 20.8 43.2 4.8 -11.5664
973 1 19.2 44.8 3.2 -11.3093
944 1 24 43.2 4.8 -11.5494
975 2 22.4 44.8 3.2 -9.44937
977 1 25.6 44.8 3.2 -11.3253
946 3 27.2 43.2 4.8 -10.9959
979 1 28.8 44.8 3.2 -11.5465
948 3 30.4 43.2 4.8 -11.2452
981 1 32 44.8 3.2 -11.5713
950 3 33.6 43.2 4.8 -11.0813
983 1 35.2 44.8 3.2 -11.565
952 3 36.8 43.2 4.8 -11.1262
985 1 38.4 44.8 3.2 -11.6843
954 3 40 43.2 4.8 -11.2063
987 1 41.6 44.8 3.2 -11.5515
956 3 43.2 43.2 4.8 -11.0825
989 1 44.8 44.8 3.2 -11.4762
958 2 46.4 43.2 4.8 -9.54548
991 1 48 44.8 3.2 -11.3831
960 1 49.6 43.2 4.8 -11.2037
962 2 1.6 46.4 4.8 -9.48387
993 1 0 48 3.2 -11.2593
964 3 4.8 46.4 4.8 -11.0403
995 1 3.2 48 3.2 -11.3222
966 3 8 46.4 4.8 -11.1147
997 1 6.4 48 3.2 -11.5155
968 1 11.2 46.4 4.8 -11.4841
999 1 9.6 48 3.2 -11.5801
970 1 14.4 46.4 4.8 -11.4757
1001 1 12.8 48 3.2 -11.5077
972 1 17.6 46.4 4.8 -11.3871
1003 1 16 48 3.2 -11.5505
974 1 20.8 46.4 4.8 -11.4507
1005 1 19.2 48 3.2 -11.3637
976 1 24 46.4 4.8 -11.6413
1007 3 22.4 48 3.2 -10.8511
1009 2 25.6 48 3.2 -9.42561
978 1 27.2 46.4 4.8 -11.4128
1011 1 28.8 48 3.2 -11.3455
980 3 30.4 46.4 4.8 -10.8578
1013 1 32 48 3.2 -11.4067
982 1 33.6 46.4 4.8 -11.3437
1015 1 35.2 48 3.2 -11.4914
984 2 36.8 46.4 4.8 -9.6471
1017 1 38.4 48 3.2 -11.6847
986 3 40 46.4 4.8 -11.0816
1019 1 41.6 48 3.2 -11.4507
988 3 43.2 46.4 4.8 -11.0836
1021 1 44.8 48 3.2 -11.5094
990 3 46.4 46.4 4.8 -11.0437
1023 3 48 48 3.2 -10.9388
992 1 49.6 46.4 4.8 -11.2982
994 1 1.6 49.6 4.8 -11.4733
996 1 4.8 49.6 4.8 -11.5026
998 1 8 49.6 4.8 -11.5321
1000 1 11.2 49.6 4.8 -11.5642
1002 1 14.4 49.6 4.8 -11.56
1004 2 17.6 49.6 4.8 -9.49623
1006 1 20.8 49.6 4.8 -11.52
1008 1 24 49.6 4.8 -11.7846
1010 1 27.2 49.6 4.8 -11.4783
1012 3 30.4 49.6 4.8 -10.9472
1014 3 33.6 49.6 4.8 -10.9925
1016 3 36.8 49.6 4.8 -11.206
1018 3 40 49.6 4.8 -11.1265
1020 2 43.2 49.6 4.8 -9.61511
1022 2 46.4 49.6 4.8 -9.59573
1024 1 49.6 49.6 4.8 -11.5271
1025 3 0 0 6.4 -10.9963
1026 1 1.6 1.6 8 -11.7577
1027 3 3.2 0 6.4 -11.1267
1028 1 4.8 1.6 8 -11.8124
1029 3 6.4 0 6.4 -11.1267
1030 1 8 1.6 8 -11.7446
1031 3 9.6 0 6.4 -11.1283
1032 1 11.2 1.6 8 -11.6668
1033 3 12.8 0 6.4 -11.2007
1034 1 14.4 1.6 8 -11.6453
1035 3 16 0 6.4 -11.0822
1036 1 17.6 1.6 8 -11.6955
1037 2 19.2 0 6.4 -9.63109
1038 1 20.8 1.6 8 -11.7524
1039 3 22.4 0 6.4 -11.166
1040 1 24 1.6 8 -11.8545
1041 3 25.6 0 6.4 -11.1267
1042 1 27.2 1.6 8 -11.5074
1043 1 28.8 0 6.4 -11.4766
1044 3 30.4 1.6 8 -10.9933
1045 1 32 0 6.4 -11.8124
1046 3 33.6 1.6 8 -11.2054
1047 1 35.2 0 6.4 -11.8124
1048 2 36.8 1.6 8 -9.63769
1049 1 38.4 0 6.4 -11.6746
1050 1 40 1.6 8 -11.4303
1051 1 41.6 0 6.4 -11.5724
1052 1 43.2 1.6 8 -11.4521
1053 1 44.8 0 6.4 -11.4885
1054 1 46.4 1.6 8 -11.5293
1055 2 48 0 6.4 -9.59391
1056 1 49.6 1.6 8 -11.7242
1057 2 0 3.2 6.4 -9.73533
1058 1 1.6 4.8 8 -11.721
1059 3 3.2 3.2 6.4 -11.1648
1060 1 4.8 4.8 8 -11.6843
1061 3 6.4 3.2 6.4 -11.0827
1062 1 8 4.8 8 -11.5973
1063 1 9.6 3.2 6.4 -11.4466
1064 1 11.2 4.8 8 -11.477
1065 1 12.8 3.2 6.4 -11.5064
1066 1 14.4 4.8 8 -11.4316
1067 1 16 3.2 6.4 -11.5258
1068 1 17.6 4.8 8 -11.4551
1069 3 19.2 3.2 6.4 -10.9857
1070 1 20.8 4.8 8 -11.5443
1071 3 22.4 3.2 6.4 -11.2421
1072 3 24 4.8 8 -11.0439
1073 3 25.6 3.2 6.4 -11.0686
1074 1 27.2 4.8 8 -11.3994
1075 1 28.8 3.2 6.4 -11.4487
1076 2 30.4 4.8 8 -9.64758
1077 1 32 3.2 6.4 -11.7846
1078 3 33.6 4.8 8 -11.167
1079 1 35.2 3.2 6.4 -11.7807
1080 2 36.8 4.8 8 -9.70058
1081 1 38.4 3.2 6.4 -11.7158
1082 2 40 4.8 8 -9.69648
1083 1 41.6 3.2 6.4 -11.596
1084 1 43.2 4.8 8 -11.6362
1085 2 44.8 3.2 6.4 -9.54024
1086 1 46.4 4.8 8 -11.7089
1087 3 48 3.2 6.4 -11.1265
1088 1 49.6 4.8 8 -11.8122
1089 3 0 6.4 6.4 -11.2048
1090 1 1.6 8 8 -11.7199
1091 3 3.2 6.4 6.4 -11.0364
1092 1 4.8 8 8 -11.579
1093 2 6.4 6.4 6.4 -9.58039
1094 1 8 8 8 -11.4381
1095 1 9.6 6.4 6.4 -11.3436
1096 1 11.2 8 8 -11.4285
1097 1 12.8 6.4 6.4 -11.5828
1098 2 14.4 8 8 -9.46171
1099 1 16 6.4 6.4 -11.5949
1100 3 17.6 8 8 -10.9601
1101 1 19.2 6.4 6.4 -11.6744
1102 3 20.8 8 8 -10.9576