 # Bcc Mo oriented X=[100] Y=[010] Z=[001].
  
        8192  atoms
           4  atom types
 
      0.000000000000      51.200000000000  xlo xhi
      0.000000000000      51.200000000000  ylo yhi
      0.000000000000      51.200000000000  zlo zhi
 
 
 
Atoms # atomic

1 3 0.0 0.0 0.0
2 1 1.6 1.6 1.6
3 1 3.2 0.0 0.0
4 2 4.8 1.6 1.6
5 1 6.4 0.0 0.0
6 1 8.0 1.6 1.6
7 2 9.6 0.0 0.0
8 1 11.2 1.6 1.6
9 1 12.8 0.0 0.0
10 3 14.4 1.6 1.6
11 1 16.0 0.0 0.0
12 1 17.6 1.6 1.6
13 1 19.2 0.0 0.0
14 1 20.8 1.6 1.6
15 1 22.4 0.0 0.0
16 1 24.0 1.6 1.6
17 1 25.6 0.0 0.0
18 1 27.2 1.6 1.6
19 2 28.8 0.0 0.0
20 3 30.4 1.6 1.6
21 3 32.0 0.0 0.0
22 1 33.6 1.6 1.6
23 1 35.2 0.0 0.0
24 2 36.8 1.6 1.6
25 2 38.4 0.0 0.0
26 2 40.0 1.6 1.6
27 1 41.6 0.0 0.0
28 1 43.2 1.6 1.6
29 1 44.8 0.0 0.0
30 1 46.4 1.6 1.6
31 1 48.0 0.0 0.0
32 2 49.6 1.6 1.6
33 2 0.0 3.2 0.0
34 2 1.6 4.8 1.6
35 1 3.2 3.2 0.0
36 1 4.8 4.8 1.6
37 2 6.4 3.2 0.0
38 1 8.0 4.8 1.6
39 2 9.6 3.2 0.0
40 1 11.2 4.8 1.6
41 2 12.8 3.2 0.0
42 2 14.4 4.8 1.6
43 2 16.0 3.2 0.0
44 3 17.6 4.8 1.6
45 1 19.2 3.2 0.0
46 2 20.8 4.8 1.6
47 2 22.4 3.2 0.0
48 1 24.0 4.8 1.6
49 2 25.6 3.2 0.0
50 3 27.2 4.8 1.6
51 2 28.8 3.2 0.0
52 2 30.4 4.8 1.6
53 2 32.0 3.2 0.0
54 1 33.6 4.8 1.6
55 2 35.2 3.2 0.0
56 2 36.8 4.8 1.6
57 2 38.4 3.2 0.0
58 2 40.0 4.8 1.6
59 2 41.6 3.2 0.0
60 2 43.2 4.8 1.6
61 3 44.8 3.2 0.0
62 2 46.4 4.8 1.6
63 2 48.0 3.2 0.0
64 1 49.6 4.8 1.6
65 2 0.0 6.4 0.0
66 2 1.6 8.0 1.6
67 1 3.2 6.4 0.0
68 2 4.8 8.0 1.6
69 1 6.4 6.4 0.0
70 2 8.0 8.0 1.6
71 3 9.6 6.4 0.0
72 1 11.2 8.0 1.6
73 1 12.8 6.4 0.0
74 1 14.4 8.0 1.6
75 1 16.0 6.4 0.0
76 2 17.6 8.0 1.6
77 2 19.2 6.4 0.0
78 3 20.8 8.0 1.6
79 1 22.4 6.4 0.0
80 1 24.0 8.0 1.6
81 3 25.6 6.4 0.0
82 2 27.2 8.0 1.6
83 3 28.8 6.4 0.0
84 1 30.4 8.0 1.6
85 3 32.0 6.4 0.0
86 1 33.6 8.0 1.6
87 1 35.2 6.4 0.0
88 1 36.8 8.0 1.6
89 2 38.4 6.4 0.0
90 1 40.0 8.0 1.6
91 2 41.6 6.4 0.0
92 1 43.2 8.0 1.6
93 1 44.8 6.4 0.0
94 3 46.4 8.0 1.6
95 2 48.0 6.4 0.0
96 1 49.6 8.0 1.6
97 2 0.0 9.6 0.0
98 3 1.6 11.2 1.6
99 2 3.2 9.6 0.0
100 2 4.8 11.2 1.6
101 2 6.4 9.6 0.0
102 3 8.0 11.2 1.6
103 2 9.6 9.6 0.0
104 2 11.2 11.2 1.6
105 3 12.8 9.6 0.0
106 2 14.4 11.2 1.6
107 1 16.0 9.6 0.0
108 3 17.6 11.2 1.6
109 2 19.2 9.6 0.0
110 3 20.8 11.2 1.6
111 3 22.4 9.6 0.0
112 2 24.0 11.2 1.6
113 2 25.6 9.6 0.0
114 3 27.2 11.2 1.6
115 1 28.8 9.6 0.0
116 3 30.4 11.2 1.6
117 3 32.0 9.6 0.0
118 3 33.6 11.2 1.6
119 2 35.2 9.6 0.0
120 1 36.8 11.2 1.6
121 1 38.4 9.6 0.0
122 1 40.0 11.2 1.6
123 1 41.6 9.6 0.0
124 2 43.2 11.2 1.6
125 1 44.8 9.6 0.0
126 2 46.4 11.2 1.6
127 1 48.0 9.6 0.0
128 3 49.6 11.2 1.6
129 2 0.0 12.8 0.0
130 2 1.6 14.4 1.6
131 2 3.2 12.8 0.0
132 1 4.8 14.4 1.6
133 1 6.4 12.8 0.0
134 3 8.0 14.4 1.6
135 3 9.6 12.8 0.0
136 1 11.2 14.4 1.6
137 1 12.8 12.8 0.0
138 1 14.4 14.4 1.6
139 1 16.0 12.8 0.0
140 1 17.6 14.4 1.6
141 2 19.2 12.8 0.0
142 3 20.8 14.4 1.6
143 2 22.4 12.8 0.0
144 2 24.0 14.4 1.6
145 2 25.6 12.8 0.0
146 3 27.2 14.4 1.6
147 3 28.8 12.8 0.0
148 1 30.4 14.4 1.6
149 1 32.0 12.8 0.0
150 2 33.6 14.4 1.6
151 1 35.2 12.8 0.0
152 2 36.8 14.4 1.6
153 1 38.4 12.8 0.0
154 3 40.0 14.4 1.6
155 2 41.6 12.8 0.0
156 1 43.2 14.4 1.6
157 2 44.8 12.8 0.0
158 1 46.4 14.4 1.6
159 1 48.0 12.8 0.0
160 3 49.6 14.4 1.6
161 3 0.0 16.0 0.0
162 1 1.6 17.6 1.6
163 3 3.2 16.0 0.0
164 1 4.8 17.6 1.6
165 2 6.4 16.0 0.0
166 3 8.0 17.6 1.6
167 1 9.6 16.0 0.0
168 1 11.2 17.6 1.6
169 2 12.8 16.0 0.0
170 1 14.4 17.6 1.6
171 1 16.0 16.0 0.0
172 2 17.6 17.6 1.6
173 3 19.2 16.0 0.0
174 1 20.8 17.6 1.6
175 2 22.4 16.0 0.0
176 2 24.0 17.6 1.6
177 1 25.6 16.0 0.0
178 2 27.2 17.6 1.6
179 2 28.8 16.0 0.0
180 1 30.4 17.6 1.6
181 2 32.0 16.0 0.0
182 2 33.6 17.6 1.6
183 1 35.2 16.0 0.0
184 2 36.8 17.6 1.6
185 2 38.4 16.0 0.0
186 2 40.0 17.6 1.6
187 3 41.6 16.0 0.0
188 3 43.2 17.6 1.6
189 1 44.8 16.0 0.0
190 2 46.4 17.6 1.6
191 1 48.0 16.0 0.0
192 3 49.6 17.6 1.6
193 1 0.0 19.2 0.0
194 1 1.6 20.8 1.6
195 3 3.2 19.2 0.0
196 2 4.8 20.8 1.6
197 3 6.4 19.2 0.0
198 2 8.0 20.8 1.6
199 1 9.6 19.2 0.0
200 2 11.2 20.8 1.6
201 1 12.8 19.2 0.0
202 2 14.4 20.8 1.6
203 2 16.0 19.2 0.0
204 3 17.6 20.8 1.6
205 3 19.2 19.2 0.0
206 3 20.8 20.8 1.6
207 2 22.4 19.2 0.0
208 3 24.0 20.8 1.6
209 2 25.6 19.2 0.0
210 2 27.2 20.8 1.6
211 2 28.8 19.2 0.0
212 3 30.4 20.8 1.6
213 1 32.0 19.2 0.0
214 3 33.6 20.8 1.6
215 1 35.2 19.2 0.0
216 1 36.8 20.8 1.6
217 3 38.4 19.2 0.0
218 1 40.0 20.8 1.6
219 2 41.6 19.2 0.0
220 1 43.2 20.8 1.6
221 3 44.8 19.2 0.0
222 1 46.4 20.8 1.6
223 2 48.0 19.2 0.0
224 1 49.6 20.8 1.6
225 2 0.0 22.4 0.0
226 2 1.6 24.0 1.6
227 1 3.2 22.4 0.0
228 1 4.8 24.0 1.6
229 1 6.4 22.4 0.0
230 1 8.0 24.0 1.6
231 3 9.6 22.4 0.0
232 1 11.2 24.0 1.6
233 1 12.8 22.4 0.0
234 1 14.4 24.0 1.6
235 1 16.0 22.4 0.0
236 1 17.6 24.0 1.6
237 3 19.2 22.4 0.0
238 1 20.8 24.0 1.6
239 1 22.4 22.4 0.0
240 1 24.0 24.0 1.6
241 3 25.6 22.4 0.0
242 1 27.2 24.0 1.6
243 2 28.8 22.4 0.0
244 3 30.4 24.0 1.6
245 3 32.0 22.4 0.0
246 3 33.6 24.0 1.6
247 1 35.2 22.4 0.0
248 1 36.8 24.0 1.6
249 3 38.4 22.4 0.0
250 2 40.0 24.0 1.6
251 2 41.6 22.4 0.0
252 1 43.2 24.0 1.6
253 1 44.8 22.4 0.0
254 2 46.4 24.0 1.6
255 2 48.0 22.4 0.0
256 1 49.6 24.0 1.6
257 3 0.0 25.6 0.0
258 3 1.6 27.2 1.6
259 2 3.2 25.6 0.0
260 3 4.8 27.2 1.6
261 1 6.4 25.6 0.0
262 1 8.0 27.2 1.6
263 1 9.6 25.6 0.0
264 2 11.2 27.2 1.6
265 2 12.8 25.6 0.0
266 2 14.4 27.2 1.6
267 2 16.0 25.6 0.0
268 2 17.6 27.2 1.6
269 2 19.2 25.6 0.0
270 3 20.8 27.2 1.6
271 2 22.4 25.6 0.0
272 2 24.0 27.2 1.6
273 1 25.6 25.6 0.0
274 2 27.2 27.2 1.6
275 2 28.8 25.6 0.0
276 2 30.4 27.2 1.6
277 3 32.0 25.6 0.0
278 3 33.6 27.2 1.6
279 2 35.2 25.6 0.0
280 1 36.8 27.2 1.6
281 2 38.4 25.6 0.0
282 2 40.0 27.2 1.6
283 2 41.6 25.6 0.0
284 1 43.2 27.2 1.6
285 2 44.8 25.6 0.0
286 2 46.4 27.2 1.6
287 2 48.0 25.6 0.0
288 3 49.6 27.2 1.6
289 1 0.0 28.8 0.0
290 1 1.6 30.4 1.6
291 2 3.2 28.8 0.0
292 2 4.8 30.4 1.6
293 3 6.4 28.8 0.0
294 2 8.0 30.4 1.6
295 1 9.6 28.8 0.0
296 2 11.2 30.4 1.6
297 2 12.8 28.8 0.0
298 1 14.4 30.4 1.6
299 1 16.0 28.8 0.0
300 1 17.6 30.4 1.6
301 2 19.2 28.8 0.0
302 1 20.8 30.4 1.6
303 1 22.4 28.8 0.0
304 3 24.0 30.4 1.6
305 3 25.6 28.8 0.0
306 2 27.2 30.4 1.6
307 1 28.8 28.8 0.0
308 3 30.4 30.4 1.6
309 2 32.0 28.8 0.0
310 2 33.6 30.4 1.6
311 1 35.2 28.8 0.0
312 2 36.8 30.4 1.6
313 3 38.4 28.8 0.0
314 2 40.0 30.4 1.6
315 1 41.6 28.8 0.0
316 1 43.2 30.4 1.6
317 2 44.8 28.8 0.0
318 1 46.4 30.4 1.6
319 1 48.0 28.8 0.0
320 3 49.6 30.4 1.6
321 2 0.0 32.0 0.0
322 2 1.6 33.6 1.6
323 3 3.2 32.0 0.0
324 1 4.8 33.6 1.6
325 2 6.4 32.0 0.0
326 1 8.0 33.6 1.6
327 2 9.6 32.0 0.0
328 3 11.2 33.6 1.6
329 2 12.8 32.0 0.0
330 1 14.4 33.6 1.6
331 1 16.0 32.0 0.0
332 1 17.6 33.6 1.6
333 2 19.2 32.0 0.0
334 1 20.8 33.6 1.6
335 1 22.4 32.0 0.0
336 2 24.0 33.6 1.6
337 3 25.6 32.0 0.0
338 1 27.2 33.6 1.6
339 3 28.8 32.0 0.0
340 1 30.4 33.6 1.6
341 1 32.0 32.0 0.0
342 1 33.6 33.6 1.6
343 3 35.2 32.0 0.0
344 3 36.8 33.6 1.6
345 1 38.4 32.0 0.0
346 2 40.0 33.6 1.6
347 1 41.6 32.0 0.0
348 2 43.2 33.6 1.6
349 1 44.8 32.0 0.0
350 2 46.4 33.6 1.6
351 1 48.0 32.0 0.0
352 3 49.6 33.6 1.6
353 2 0.0 35.2 0.0
354 2 1.6 36.8 1.6
355 3 3.2 35.2 0.0
356 1 4.8 36.8 1.6
357 2 6.4 35.2 0.0
358 1 8.0 36.8 1.6
359 2 9.6 35.2 0.0
360 2 11.2 36.8 1.6
361 2 12.8 35.2 0.0
362 1 14.4 36.8 1.6
363 1 16.0 35.2 0.0
364 3 17.6 36.8 1.6
365 1 19.2 35.2 0.0
366 1 20.8 36.8 1.6
367 3 22.4 35.2 0.0
368 2 24.0 36.8 1.6
369 2 25.6 35.2 0.0
370 1 27.2 36.8 1.6
371 1 28.8 35.2 0.0
372 3 30.4 36.8 1.6
373 2 32.0 35.2 0.0
374 3 33.6 36.8 1.6
375 2 35.2 35.2 0.0
376 3 36.8 36.8 1.6
377 3 38.4 35.2 0.0
378 2 40.0 36.8 1.6
379 2 41.6 35.2 0.0
380 1 43.2 36.8 1.6
381 1 44.8 35.2 0.0
382 2 46.4 36.8 1.6
383 2 48.0 35.2 0.0
384 2 49.6 36.8 1.6
385 3 0.0 38.4 0.0
386 2 1.6 40.0 1.6
387 1 3.2 38.4 0.0
388 1 4.8 40.0 1.6
389 1 6.4 38.4 0.0
390 2 8.0 40.0 1.6
391 2 9.6 38.4 0.0
392 1 11.2 40.0 1.6
393 1 12.8 38.4 0.0
394 1 14.4 40.0 1.6
395 1 16.0 38.4 0.0
396 1 17.6 40.0 1.6
397 3 19.2 38.4 0.0
398 1 20.8 40.0 1.6
399 2 22.4 38.4 0.0
400 2 24.0 40.0 1.6
401 1 25.6 38.4 0.0
402 3 27.2 40.0 1.6
403 1 28.8 38.4 0.0
404 2 30.4 40.0 1.6
405 2 32.0 38.4 0.0
406 2 33.6 40.0 1.6
407 1 35.2 38.4 0.0
408 1 36.8 40.0 1.6
409 1 38.4 38.4 0.0
410 2 40.0 40.0 1.6
411 2 41.6 38.4 0.0
412 1 43.2 40.0 1.6
413 1 44.8 38.4 0.0
414 2 46.4 40.0 1.6
415 2 48.0 38.4 0.0
416 3 49.6 40.0 1.6
417 1 0.0 41.6 0.0
418 1 1.6 43.2 1.6
419 1 3.2 41.6 0.0
420 2 4.8 43.2 1.6
421 3 6.4 41.6 0.0
422 2 8.0 43.2 1.6
423 2 9.6 41.6 0.0
424 2 11.2 43.2 1.6
425 2 12.8 41.6 0.0
426 1 14.4 43.2 1.6
427 1 16.0 41.6 0.0
428 3 17.6 43.2 1.6
429 1 19.2 41.6 0.0
430 2 20.8 43.2 1.6
431 1 22.4 41.6 0.0
432 2 24.0 43.2 1.6
433 1 25.6 41.6 0.0
434 1 27.2 43.2 1.6
435 1 28.8 41.6 0.0
436 1 30.4 43.2 1.6
437 1 32.0 41.6 0.0
438 1 33.6 43.2 1.6
439 2 35.2 41.6 0.0
440 1 36.8 43.2 1.6
441 1 38.4 41.6 0.0
442 2 40.0 43.2 1.6
443 3 41.6 41.6 0.0
444 2 43.2 43.2 1.6
445 1 44.8 41.6 0.0
446 1 46.4 43.2 1.6
447 1 48.0 41.6 0.0
448 1 49.6 43.2 1.6
449 2 0.0 44.8 0.0
450 1 1.6 46.4 1.6
451 3 3.2 44.8 0.0
452 2 4.8 46.4 1.6
453 1 6.4 44.8 0.0
454 2 8.0 46.4 1.6
455 2 9.6 44.8 0.0
456 1 11.2 46.4 1.6
457 2 12.8 44.8 0.0
458 2 14.4 46.4 1.6
459 3 16.0 44.8 0.0
460 1 17.6 46.4 1.6
461 2 19.2 44.8 0.0
462 2 20.8 46.4 1.6
463 1 22.4 44.8 0.0
464 1 24.0 46.4 1.6
465 1 25.6 44.8 0.0
466 3 27.2 46.4 1.6
467 1 28.8 44.8 0.0
468 3 30.4 46.4 1.6
469 3 32.0 44.8 0.0
470 3 33.6 46.4 1.6
471 1 35.2 44.8 0.0
472 3 36.8 46.4 1.6
473 2 38.4 44.8 0.0
474 2 40.0 46.4 1.6
475 1 41.6 44.8 0.0
476 1 43.2 46.4 1.6
477 1 44.8 44.8 0.0
478 2 46.4 46.4 1.6
479 1 48.0 44.8 0.0
480 3 49.6 46.4 1.6
481 2 0.0 48.0 0.0
482 1 1.6 49.6 1.6
483 3 3.2 48.0 0.0
484 1 4.8 49.6 1.6
485 3 6.4 48.0 0.0
486 2 8.0 49.6 1.6
487 1 9.6 48.0 0.0
488 1 11.2 49.6 1.6
489 1 12.8 48.0 0.0
490 1 14.4 49.6 1.6
491 2 16.0 48.0 0.0
492 2 17.6 49.6 1.6
493 1 19.2 48.0 0.0
494 1 20.8 49.6 1.6
495 2 22.4 48.0 0.0
496 2 24.0 49.6 1.6
497 2 25.6 48.0 0.0
498 1 27.2 49.6 1.6
499 2 28.8 48.0 0.0
500 3 30.4 49.6 1.6
501 2 32.0 48.0 0.0
502 1 33.6 49.6 1.6
503 1 35.2 48.0 0.0
504 1 36.8 49.6 1.6
505 3 38.4 48.0 0.0
506 2 40.0 49.6 1.6
507 1 41.6 48.0 0.0
508 2 43.2 49.6 1.6
509 3 44.8 48.0 0.0
510 1 46.4 49.6 1.6
511 2 48.0 48.0 0.0
512 2 49.6 49.6 1.6
513 1 0.0 0.0 3.2
514 2 1.6 1.6 4.8
515 1 3.2 0.0 3.2
516 1 4.8 1.6 4.8
517 3 6.4 0.0 3.2
518 2 8.0 1.6 4.8
519 1 9.6 0.0 3.2
520 2 11.2 1.6 4.8
521 2 12.8 0.0 3.2
522 2 14.4 1.6 4.8
523 1 16.0 0.0 3.2
524 3 17.6 1.6 4.8
525 3 19.2 0.0 3.2
526 2 20.8 1.6 4.8
527 2 22.4 0.0 3.2
528 2 24.0 1.6 4.8
529 3 25.6 0.0 3.2
530 2 27.2 1.6 4.8
531 3 28.8 0.0 3.2
532 2 30.4 1.6 4.8
533 1 32.0 0.0 3.2
534 1 33.6 1.6 4.8
535 1 35.2 0.0 3.2
536 2 36.8 1.6 4.8
537 2 38.4 0.0 3.2
538 1 40.0 1.6 4.8
539 2 41.6 0.0 3.2
540 2 43.2 1.6 4.8
541 2 44.8 0.0 3.2
542 1 46.4 1.6 4.8
543 1 48.0 0.0 3.2
544 2 49.6 1.6 4.8
545 2 0.0 3.2 3.2
546 1 1.6 4.8 4.8
547 2 3.2 3.2 3.2
548 1 4.8 4.8 4.8
549 2 6.4 3.2 3.2
550 1 8.0 4.8 4.8
551 1 9.6 3.2 3.2
552 2 11.2 4.8 4.8
553 2 12.8 3.2 3.2
554 2 14.4 4.8 4.8
555 2 16.0 3.2 3.2
556 1 17.6 4.8 4.8
557 1 19.2 3.2 3.2
558 2 20.8 4.8 4.8
559 2 22.4 3.2 3.2
560 1 24.0 4.8 4.8
561 1 25.6 3.2 3.2
562 1 27.2 4.8 4.8
563 1 28.8 3.2 3.2
564 1 30.4 4.8 4.8
565 2 32.0 3.2 3.2
566 1 33.6 4.8 4.8
567 3 35.2 3.2 3.2
568 1 36.8 4.8 4.8
569 1 38.4 3.2 3.2
570 1 40.0 4.8 4.8
571 3 41.6 3.2 3.2
572 1 43.2 4.8 4.8
573 1 44.8 3.2 3.2
574 1 46.4 4.8 4.8
575 1 48.0 3.2 3.2
576 3 49.6 4.8 4.8
577 2 0.0 6.4 3.2
578 1 1.6 8.0 4.8
579 3 3.2 6.4 3.2
580 3 4.8 8.0 4.8
581 2 6.4 6.4 3.2
582 1 8.0 8.0 4.8
583 3 9.6 6.4 3.2
584 3 11.2 8.0 4.8
585 3 12.8 6.4 3.2
586 3 14.4 8.0 4.8
587 2 16.0 6.4 3.2
588 1 17.6 8.0 4.8
589 2 19.2 6.4 3.2
590 2 20.8 8.0 4.8
591 3 22.4 6.4 3.2
592 1 24.0 8.0 4.8
593 2 25.6 6.4 3.2
594 1 27.2 8.0 4.8
595 1 28.8 6.4 3.2
596 2 30.4 8.0 4.8
597 2 32.0 6.4 3.2
598 1 33.6 8.0 4.8
599 3 35.2 6.4 3.2
600 3 36.8 8.0 4.8
601 2 38.4 6.4 3.2
602 2 40.0 8.0 4.8
603 2 41.6 6.4 3.2
604 1 43.2 8.0 4.8
605 3 44.8 6.4 3.2
606 2 46.4 8.0 4.8
607 3 48.0 6.4 3.2
608 1 49.6 8.0 4.8
609 2 0.0 9.6 3.2
610 3 1.6 11.2 4.8
611 1 3.2 9.6 3.2
612 2 4.8 11.2 4.8
613 2 6.4 9.6 3.2
614 1 8.0 11.2 4.8
615 1 9.6 9.6 3.2
616 3 11.2 11.2 4.8
617 3 12.8 9.6 3.2
618 1 14.4 11.2 4.8
619 2 16.0 9.6 3.2
620 2 17.6 11.2 4.8
621 1 19.2 9.6 3.2
622 3 20.8 11.2 4.8
623 2 22.4 9.6 3.2
624 2 24.0 11.2 4.8
625 2 25.6 9.6 3.2
626 1 27.2 11.2 4.8
627 2 28.8 9.6 3.2
628 2 30.4 11.2 4.8
629 1 32.0 9.6 3.2
630 1 33.6 11.2 4.8
631 1 35.2 9.6 3.2
632 1 36.8 11.2 4.8
633 2 38.4 9.6 3.2
634 2 40.0 11.2 4.8
635 1 41.6 9.6 3.2
636 1 43.2 11.2 4.8
637 1 44.8 9.6 3.2
638 2 46.4 11.2 4.8
639 2 48.0 9.6 3.2
640 2 49.6 11.2 4.8
641 3 0.0 12.8 3.2
642 3 1.6 14.4 4.8
643 2 3.2 12.8 3.2
644 1 4.8 14.4 4.8
645 1 6.4 12.8 3.2
646 3 8.0 14.4 4.8
647 3 9.6 12.8 3.2
648 2 11.2 14.4 4.8
649 1 12.8 12.8 3.2
650 3 14.4 14.4 4.8
651 3 16.0 12.8 3.2
652 3 17.6 14.4 4.8
653 2 19.2 12.8 3.2
654 2 20.8 14.4 4.8
655 1 22.4 12.8 3.2
656 1 24.0 14.4 4.8
657 2 25.6 12.8 3.2
658 2 27.2 14.4 4.8
659 2 28.8 12.8 3.2
660 3 30.4 14.4 4.8
661 1 32.0 12.8 3.2
662 1 33.6 14.4 4.8
663 3 35.2 12.8 3.2
664 1 36.8 14.4 4.8
665 2 38.4 12.8 3.2
666 2 40.0 14.4 4.8
667 2 41.6 12.8 3.2
668 1 43.2 14.4 4.8
669 1 44.8 12.8 3.2
670 1 46.4 14.4 4.8
671 2 48.0 12.8 3.2
672 2 49.6 14.4 4.8
673 3 0.0 16.0 3.2
674 2 1.6 17.6 4.8
675 2 3.2 16.0 3.2
676 1 4.8 17.6 4.8
677 2 6.4 16.0 3.2
678 2 8.0 17.6 4.8
679 2 9.6 16.0 3.2
680 2 11.2 17.6 4.8
681 1 12.8 16.0 3.2
682 2 14.4 17.6 4.8
683 2 16.0 16.0 3.2
684 2 17.6 17.6 4.8
685 3 19.2 16.0 3.2
686 1 20.8 17.6 4.8
687 1 22.4 16.0 3.2
688 1 24.0 17.6 4.8
689 2 25.6 16.0 3.2
690 1 27.2 17.6 4.8
691 2 28.8 16.0 3.2
692 2 30.4 17.6 4.8
693 3 32.0 16.0 3.2
694 1 33.6 17.6 4.8
695 1 35.2 16.0 3.2
696 1 36.8 17.6 4.8
697 3 38.4 16.0 3.2
698 3 40.0 17.6 4.8
699 2 41.6 16.0 3.2
700 2 43.2 17.6 4.8
701 2 44.8 16.0 3.2
702 1 46.4 17.6 4.8
703 2 48.0 16.0 3.2
704 1 49.6 17.6 4.8
705 1 0.0 19.2 3.2
706 1 1.6 20.8 4.8
707 1 3.2 19.2 3.2
708 3 4.8 20.8 4.8
709 2 6.4 19.2 3.2
710 2 8.0 20.8 4.8
711 2 9.6 19.2 3.2
712 3 11.2 20.8 4.8
713 2 12.8 19.2 3.2
714 3 14.4 20.8 4.8
715 1 16.0 19.2 3.2
716 1 17.6 20.8 4.8
717 2 19.2 19.2 3.2
718 1 20.8 20.8 4.8
719 2 22.4 19.2 3.2
720 1 24.0 20.8 4.8
721 1 25.6 19.2 3.2
722 2 27.2 20.8 4.8
723 1 28.8 19.2 3.2
724 1 30.4 20.8 4.8
725 1 32.0 19.2 3.2
726 2 33.6 20.8 4.8
727 1 35.2 19.2 3.2
728 3 36.8 20.8 4.8
729 2 38.4 19.2 3.2
730 2 40.0 20.8 4.8
731 2 41.6 19.2 3.2
732 2 43.2 20.8 4.8
733 2 44.8 19.2 3.2
734 1 46.4 20.8 4.8
735 1 48.0 19.2 3.2
736 2 49.6 20.8 4.8
737 1 0.0 22.4 3.2
738 2 1.6 24.0 4.8
739 2 3.2 22.4 3.2
740 1 4.8 24.0 4.8
741 2 6.4 22.4 3.2
742 2 8.0 24.0 4.8
743 1 9.6 22.4 3.2
744 2 11.2 24.0 4.8
745 2 12.8 22.4 3.2
746 3 14.4 24.0 4.8
747 1 16.0 22.4 3.2
748 1 17.6 24.0 4.8
749 3 19.2 22.4 3.2
750 1 20.8 24.0 4.8
751 1 22.4 22.4 3.2
752 1 24.0 24.0 4.8
753 2 25.6 22.4 3.2
754 2 27.2 24.0 4.8
755 1 28.8 22.4 3.2
756 2 30.4 24.0 4.8
757 2 32.0 22.4 3.2
758 1 33.6 24.0 4.8
759 2 35.2 22.4 3.2
760 1 36.8 24.0 4.8
761 1 38.4 22.4 3.2
762 1 40.0 24.0 4.8
763 1 41.6 22.4 3.2
764 2 43.2 24.0 4.8
765 2 44.8 22.4 3.2
766 1 46.4 24.0 4.8
767 2 48.0 22.4 3.2
768 2 49.6 24.0 4.8
769 1 0.0 25.6 3.2
770 3 1.6 27.2 4.8
771 1 3.2 25.6 3.2
772 3 4.8 27.2 4.8
773 1 6.4 25.6 3.2
774 2 8.0 27.2 4.8
775 3 9.6 25.6 3.2
776 1 11.2 27.2 4.8
777 1 12.8 25.6 3.2
778 3 14.4 27.2 4.8
779 1 16.0 25.6 3.2
780 1 17.6 27.2 4.8
781 2 19.2 25.6 3.2
782 2 20.8 27.2 4.8
783 1 22.4 25.6 3.2
784 1 24.0 27.2 4.8
785 1 25.6 25.6 3.2
786 1 27.2 27.2 4.8
787 2 28.8 25.6 3.2
788 1 30.4 27.2 4.8
789 2 32.0 25.6 3.2
790 2 33.6 27.2 4.8
791 2 35.2 25.6 3.2
792 2 36.8 27.2 4.8
793 3 38.4 25.6 3.2
794 1 40.0 27.2 4.8
795 1 41.6 25.6 3.2
796 1 43.2 27.2 4.8
797 1 44.8 25.6 3.2
798 2 46.4 27.2 4.8
799 3 48.0 25.6 3.2
800 2 49.6 27.2 4.8
801 2 0.0 28.8 3.2
802 2 1.6 30.4 4.8
803 3 3.2 28.8 3.2
804 2 4.8 30.4 4.8
805 3 6.4 28.8 3.2
806 2 8.0 30.4 4.8
807 1 9.6 28.8 3.2
808 3 11.2 30.4 4.8
809 1 12.8 28.8 3.2
810 2 14.4 30.4 4.8
811 2 16.0 28.8 3.2
812 2 17.6 30.4 4.8
813 1 19.2 28.8 3.2
814 1 20.8 30.4 4.8
815 2 22.4 28.8 3.2
816 3 24.0 30.4 4.8
817 1 25.6 28.8 3.2
818 2 27.2 30.4 4.8
819 1 28.8 28.8 3.2
820 2 30.4 30.4 4.8
821 2 32.0 28.8 3.2
822 1 33.6 30.4 4.8
823 1 35.2 28.8 3.2
824 3 36.8 30.4 4.8
825 2 38.4 28.8 3.2
826 2 40.0 30.4 4.8
827 1 41.6 28.8 3.2
828 2 43.2 30.4 4.8
829 2 44.8 28.8 3.2
830 3 46.4 30.4 4.8
831 3 48.0 28.8 3.2
832 2 49.6 30.4 4.8
833 1 0.0 32.0 3.2
834 1 1.6 33.6 4.8
835 3 3.2 32.0 3.2
836 2 4.8 33.6 4.8
837 3 6.4 32.0 3.2
838 2 8.0 33.6 4.8
839 3 9.6 32.0 3.2
840 1 11.2 33.6 4.8
841 3 12.8 32.0 3.2
842 1 14.4 33.6 4.8
843 1 16.0 32.0 3.2
844 2 17.6 33.6 4.8
845 1 19.2 32.0 3.2
846 2 20.8 33.6 4.8
847 2 22.4 32.0 3.2
848 2 24.0 33.6 4.8
849 2 25.6 32.0 3.2
850 3 27.2 33.6 4.8
851 1 28.8 32.0 3.2
852 1 30.4 33.6 4.8
853 2 32.0 32.0 3.2
854 2 33.6 33.6 4.8
855 3 35.2 32.0 3.2
856 2 36.8 33.6 4.8
857 2 38.4 32.0 3.2
858 2 40.0 33.6 4.8
859 2 41.6 32.0 3.2
860 3 43.2 33.6 4.8
861 2 44.8 32.0 3.2
862 3 46.4 33.6 4.8
863 2 48.0 32.0 3.2
864 1 49.6 33.6 4.8
865 2 0.0 35.2 3.2
866 2 1.6 36.8 4.8
867 1 3.2 35.2 3.2
868 2 4.8 36.8 4.8
869 1 6.4 35.2 3.2
870 2 8.0 36.8 4.8
871 3 9.6 35.2 3.2
872 1 11.2 36.8 4.8
873 2 12.8 35.2 3.2
874 1 14.4 36.8 4.8
875 1 16.0 35.2 3.2
876 1 17.6 36.8 4.8
877 2 19.2 35.2 3.2
878 1 20.8 36.8 4.8
879 3 22.4 35.2 3.2
880 3 24.0 36.8 4.8
881 2 25.6 35.2 3.2
882 2 27.2 36.8 4.8
883 3 28.8 35.2 3.2
884 1 30.4 36.8 4.8
885 2 32.0 35.2 3.2
886 1 33.6 36.8 4.8
887 3 35.2 35.2 3.2
888 1 36.8 36.8 4.8
889 2 38.4 35.2 3.2
890 3 40.0 36.8 4.8
891 3 41.6 35.2 3.2
892 2 43.2 36.8 4.8
893 1 44.8 35.2 3.2
894 2 46.4 36.8 4.8
895 1 48.0 35.2 3.2
896 2 49.6 36.8 4.8
897 1 0.0 38.4 3.2
898 1 1.6 40.0 4.8
899 1 3.2 38.4 3.2
900 2 4.8 40.0 4.8
901 3 6.4 38.4 3.2
902 2 8.0 40.0 4.8
903 1 9.6 38.4 3.2
904 1 11.2 40.0 4.8
905 2 12.8 38.4 3.2
906 1 14.4 40.0 4.8
907 3 16.0 38.4 3.2
908 1 17.6 40.0 4.8
909 2 19.2 38.4 3.2
910 1 20.8 40.0 4.8
911 1 22.4 38.4 3.2
912 3 24.0 40.0 4.8
913 1 25.6 38.4 3.2
914 2 27.2 40.0 4.8
915 1 28.8 38.4 3.2
916 2 30.4 40.0 4.8
917 3 32.0 38.4 3.2
918 3 33.6 40.0 4.8
919 3 35.2 38.4 3.2
920 1 36.8 40.0 4.8
921 2 38.4 38.4 3.2
922 1 40.0 40.0 4.8
923 2 41.6 38.4 3.2
924 1 43.2 40.0 4.8
925 3 44.8 38.4 3.2
926 1 46.4 40.0 4.8
927 2 48.0 38.4 3.2
928 3 49.6 40.0 4.8
929 2 0.0 41.6 3.2
930 3 1.6 43.2 4.8
931 2 3.2 41.6 3.2
932 1 4.8 43.2 4.8
933 2 6.4 41.6 3.2
934 2 8.0 43.2 4.8
935 2 9.6 41.6 3.2
936 1 11.2 43.2 4.8
937 2 12.8 41.6 3.2
938 1 14.4 43.2 4.8
939 2 16.0 41.6 3.2
940 2 17.6 43.2 4.8
941 2 19.2 41.6 3.2
942 1 20.8 43.2 4.8
943 1 22.4 41.6 3.2
944 2 24.0 43.2 4.8
945 1 25.6 41.6 3.2
946 1 27.2 43.2 4.8
947 3 28.8 41.6 3.2
948 1 30.4 43.2 4.8
949 2 32.0 41.6 3.2
950 3 33.6 43.2 4.8
951 3 35.2 41.6 3.2
952 2 36.8 43.2 4.8
953 3 38.4 41.6 3.2
954 1 40.0 43.2 4.8
955 2 41.6 41.6 3.2
956 3 43.2 43.2 4.8
957 1 44.8 41.6 3.2
958 1 46.4 43.2 4.8
959 2 48.0 41.6 3.2
960 2 49.6 43.2 4.8
961 1 0.0 44.8 3.2
962 2 1.6 46.4 4.8
963 1 3.2 44.8 3.2
964 3 4.8 46.4 4.8
965 2 6.4 44.8 3.2
966 1 8.0 46.4 4.8
967 1 9.6 44.8 3.2
968 1 11.2 46.4 4.8
969 1 12.8 44.8 3.2
970 2 14.4 46.4 4.8
971 1 16.0 44.8 3.2
972 1 17.6 46.4 4.8
973 3 19.2 44.8 3.2
974 3 20.8 46.4 4.8
975 2 22.4 44.8 3.2
976 3 24.0 46.4 4.8
977 2 25.6 44.8 3.2
978 2 27.2 46.4 4.8
979 1 28.8 44.8 3.2
980 2 30.4 46.4 4.8
981 1 32.0 44.8 3.2
982 2 33.6 46.4 4.8
983 1 35.2 44.8 3.2
984 1 36.8 46.4 4.8
985 3 38.4 44.8 3.2
986 1 40.0 46.4 4.8
987 3 41.6 44.8 3.2
988 2 43.2 46.4 4.8
989 2 44.8 44.8 3.2
990 2 46.4 46.4 4.8
991 2 48.0 44.8 3.2
992 3 49.6 46.4 4.8
993 3 0.0 48.0 3.2
994 2 1.6 49.6 4.8
995 3 3.2 48.0 3.2
996 3 4.8 49.6 4.8
997 1 6.4 48.0 3.2
998 1 8.0 49.6 4.8
999 3 9.6 48.0 3.2
1000 2 11.2 49.6 4.8
1001 2 12.8 48.0 3.2
1002 2 14.4 49.6 4.8
1003 2 16.0 48.0 3.2
1004 2 17.6 49.6 4.8
1005 2 19.2 48.0 3.2
1006 2 20.8 49.6 4.8
1007 1 22.4 48.0 3.2
1008 1 24.0 49.6 4.8
1009 1 25.6 48.0 3.2
1010 1 27.2 49.6 4.8
1011 2 28.8 48.0 3.2
1012 2 30.4 49.6 4.8
1013 2 32.0 48.0 3.2
1014 1 33.6 49.6 4.8
1015 3 35.2 48.0 3.2
1016 1 36.8 49.6 4.8
1017 2 38.4 48.0 3.2
1018 1 40.0 49.6 4.8
1019 1 41.6 48.0 3.2
1020 3 43.2 49.6 4.8
1021 3 44.8 48.0 3.2
1022 2 46.4 49.6 4.8
1023 2 48.0 48.0 3.2
1024 2 49.6 49.6 4.8
1025 1 0.0 0.0 6.4
1026 1 1.6 1.6 8.0
1027 1 3.2 0.0 6.4
1028 2 4.8 1.6 8.0
1029 2 6.4 0.0 6.4
1030 2 8.0 1.6 8.0
1031 1 9.6 0.0 6.4
1032 2 11.2 1.6 8.0
1033 2 12.8 0.0 6.4
1034 1 14.4 1.6 8.0
1035 3 16.0 0.0 6.4
1036 2 17.6 1.6 8.0
1037 2 19.2 0.0 6.4
1038 2 20.8 1.6 8.0
1039 3 22.4 0.0 6.4
1040 1 24.0 1.6 8.0
1041 2 25.6 0.0 6.4
1042 2 27.2 1.6 8.0
1043 2 28.8 0.0 6.4
1044 3 30.4 1.6 8.0
1045 1 32.0 0.0 6.4
1046 2 33.6 1.6 8.0
1047 2 35.2 0.0 6.4
1048 3 36.8 1.6 8.0
1049 1 38.4 0.0 6.4
1050 1 40.0 1.6 8.0
1051 1 41.6 0.0 6.4
1052 1 43.2 1.6 8.0
1053 1 44.8 0.0 6.4
1054 2 46.4 1.6 8.0
1055 1 48.0 0.0 6.4
1056 3 49.6 1.6 8.0
1057 2 0.0 3.2 6.4
1058 1 1.6 4.8 8.0
1059 2 3.2 3.2 6.4
1060 1 4.8 4.8 8.0
1061 1 6.4 3.2 6.4
1062 2 8.0 4.8 8.0
1063 1 9.6 3.2 6.4
1064 2 11.2 4.8 8.0
1065 2 12.8 3.2 6.4
1066 2 14.4 4.8 8.0
1067 1 16.0 3.2 6.4
1068 1 17.6 4.8 8.0
1069 2 19.2 3.2 6.4
1070 2 20.8 4.8 8.0
1071 2 22.4 3.2 6.4
1072 2 24.0 4.8 8.0
1073 1 25.6 3.2 6.4
1074 2 27.2 4.8 8.0
1075 2 28.8 3.2 6.4
1076 1 30.4 4.8 8.0
1077 2 32.0 3.2 6.4
1078 1 33.6 4.8 8.0
1079 3 35.2 3.2 6.4
1080 1 36.8 4.8 8.0
1081 1 38.4 3.2 6.4
1082 2 40.0 4.8 8.0
1083 2 41.6 3.2 6.4
1084 2 43.2 4.8 8.0
1085 3 44.8 3.2 6.4
1086 2 46.4 4.8 8.0
1087 1 48.0 3.2 6.4
1088 2 49.6 4.8 8.0
1089 2 0.0 6.4 6.4
1090 2 1.6 8.0 8.0
1091 3 3.2 6.4 6.4
1092 2 4.8 8.0 8.0
1093 3 6.4 6.4 6.4
1094 1 8.0 8.0 8.0
1095 3 9.6 6.4 6.4
1096 3 11.2 8.0 8.0
1097 2 12.8 6.4 6.4
1098 3 14.4 8.0 8.0
1099 2 16.0 6.4 6.4
1100 1 17.6 8.0 8.0
1101 1 19.2 6.4 6.4
1102 1 20.8 8.0 8.0
1103 1 22.4 6.4 6.4
1104 3 24.0 8.0 8.0
1105 2 25.6 6.4 6.4
1106 1 27.2 8.0 8.0
1107 2 28.8 6.4 6.4
1108 3 30.4 8.0 8.0
1109 2 32.0 6.4 6.4
1110 1 33.6 8.0 8.0
1111 1 35.2 6.4 6.4
1112 1 36.8 8.0 8.0
1113 1 38.4 6.4 6.4
1114 3 40.0 8.0 8.0
1115 2 41.6 6.4 6.4
1116 2 43.2 8.0 8.0
1117 3 44.8 6.4 6.4
1118 1 46.4 8.0 8.0
1119 2 48.0 6.4 6.4
1120 2 49.6 8.0 8.0
1121 1 0.0 9.6 6.4
1122 2 1.6 11.2 8.0
1123 1 3.2 9.6 6.4
1124 3 4.8 11.2 8.0
1125 3 6.4 9.6 6.4
1126 3 8.0 11.2 8.0
1127 1 9.6 9.6 6.4
1128 1 11.2 11.2 8.0
1129 2 12.8 9.6 6.4
1130 2 14.4 11.2 8.0
1131 2 16.0 9.6 6.4
1132 3 17.6 11.2 8.0
1133 1 19.2 9.6 6.4
1134 3 20.8 11.2 8.0
1135 1 22.4 9.6 6.4
1136 2 24.0 11.2 8.0
1137 2 25.6 9.6 6.4
1138 1 27.2 11.2 8.0
1139 1 28.8 9.6 6.4
1140 1 30.4 11.2 8.0
1141 2 32.0 9.6 6.4
1142 2 33.6 11.2 8.0
1143 1 35.2 9.6 6.4
1144 2 36.8 11.2 8.0
1145 2 38.4 9.6 6.4
1146 2 40.0 11.2 8.0
1147 2 41.6 9.6 6.4
1148 1 43.2 11.2 8.0
1149 2 44.8 9.6 6.4
1150 2 46.4 11.2 8.0
1151 2 48.0 9.6 6.4
1152 3 49.6 11.2 8.0
1153 2 0.0 12.8 6.4
1154 1 1.6 14.4 8.0
1155 1 3.2 12.8 6.4
1156 3 4.8 14.4 8.0
1157 1 6.4 12.8 6.4
1158 1 8.0 14.4 8.0
1159 2 9.6 12.8 6.4
1160 2 11.2 14.4 8.0
1161 2 12.8 12.8 6.4
1162 1 14.4 14.4 8.0
1163 1 16.0 12.8 6.4
1164 1 17.6 14.4 8.0
1165 1 19.2 12.8 6.4
1166 1 20.8 14.4 8.0
1167 1 22.4 12.8 6.4
1168 1 24.0 14.4 8.0
1169 3 25.6 12.8 6.4
1170 3 27.2 14.4 8.0
1171 2 28.8 12.8 6.4
1172 2 30.4 14.4 8.0
1173 1 32.0 12.8 6.4
1174 1 33.6 14.4 8.0
1175 1 35.2 12.8 6.4
1176 1 36.8 14.4 8.0
1177 1 38.4 12.8 6.4
1178 2 40.0 14.4 8.0
1179 2 41.6 12.8 6.4
1180 2 43.2 14.4 8.0
1181 1 44.8 12.8 6.4
1182 3 46.4 14.4 8.0
1183 3 48.0 12.8 6.4
1184 2 49.6 14.4 8.0
1185 2 0.0 16.0 6.4
1186 1 1.6 17.6 8.0
1187 2 3.2 16.0 6.4
1188 2 4.8 17.6 8.0
1189 3 6.4 16.0 6.4
1190 1 8.0 17.6 8.0
1191 1 9.6 16.0 6.4
1192 1 11.2 17.6 8.0
1193 2 12.8 16.0 6.4
1194 2 14.4 17.6 8.0
1195 1 16.0 16.0 6.4
1196 2 17.6 17.6 8.0
1197 2 19.2 16.0 6.4
1198 3 20.8 17.6 8.0
1199 2 22.4 16.0 6.4
1200 3 24.0 17.6 8.0
1201 2 25.6 16.0 6.4
1202 1 27.2 17.6 8.0
1203 1 28.8 16.0 6.4
1204 3 30.4 17.6 8.0
1205 3 32.0 16.0 6.4
1206 3 33.6 17.6 8.0
1207 1 35.2 16.0 6.4
1208 3 36.8 17.6 8.0
1209 2 38.4 16.0 6.4
1210 3 40.0 17.6 8.0
1211 2 41.6 16.0 6.4
1212 2 43.2 17.6 8.0
1213 3 44.8 16.0 6.4
1214 2 46.4 17.6 8.0
1215 1 48.0 16.0 6.4
1216 2 49.6 17.6 8.0
1217 1 0.0 19.2 6.4
1218 1 1.6 20.8 8.0
1219 1 3.2 19.2 6.4
1220 1 4.8 20.8 8.0
1221 3 6.4 19.2 6.4
1222 1 8.0 20.8 8.0
1223 2 9.6 19.2 6.4
1224 3 11.2 20.8 8.0
1225 3 12.8 19.2 6.4
1226 1 14.4 20.8 8.0
1227 3 16.0 19.2 6.4
1228 2 17.6 20.8 8.0
1229 3 19.2 19.2 6.4
1230 2 20.8 20.8 8.0
1231 1 22.4 19.2 6.4
1232 1 24.0 20.8 8.0
1233 2 25.6 19.2 6.4
1234 2 27.2 20.8 8.0
1235 1 28.8 19.2 6.4
1236 1 30.4 20.8 8.0
1237 3 32.0 19.2 6.4
1238 2 33.6 20.8 8.0
1239 2 35.2 19.2 6.4
1240 1 36.8 20.8 8.0
1241 1 38.4 19.2 6.4
1242 1 40.0 20.8 8.0
1243 3 41.6 19.2 6.4
1244 2 43.2 20.8 8.0
1245 2 44.8 19.2 6.4
1246 1 46.4 20.8 8.0
1247 2 48.0 19.2 6.4
1248 1 49.6 20.8 8.0
1249 2 0.0 22.4 6.4
1250 2 1.6 24.0 8.0
1251 3 3.2 22.4 6.4
1252 2 4.8 24.0 8.0
1253 2 6.4 22.4 6.4
1254 2 8.0 24.0 8.0
1255 2 9.6 22.4 6.4
1256 2 11.2 24.0 8.0
1257 1 12.8 22.4 6.4
1258 2 14.4 24.0 8.0
1259 1 16.0 22.4 6.4
1260 1 17.6 24.0 8.0
1261 2 19.2 22.4 6.4
1262 2 20.8 24.0 8.0
1263 1 22.4 22.4 6.4
1264 1 24.0 24.0 8.0
1265 2 25.6 22.4 6.4
1266 1 27.2 24.0 8.0
1267 2 28.8 22.4 6.4
1268 3 30.4 24.0 8.0
1269 2 32.0 22.4 6.4
1270 2 33.6 24.0 8.0
1271 2 35.2 22.4 6.4
1272 2 36.8 24.0 8.0
1273 1 38.4 22.4 6.4
1274 3 40.0 24.0 8.0
1275 1 41.6 22.4 6.4
1276 2 43.2 24.0 8.0
1277 1 44.8 22.4 6.4
1278 2 46.4 24.0 8.0
1279 2 48.0 22.4 6.4
1280 2 49.6 24.0 8.0
1281 3 0.0 25.6 6.4
1282 1 1.6 27.2 8.0
1283 2 3.2 25.6 6.4
1284 1 4.8 27.2 8.0
1285 3 6.4 25.6 6.4
1286 1 8.0 27.2 8.0
1287 3 9.6 25.6 6.4
1288 1 11.2 27.2 8.0
1289 1 12.8 25.6 6.4
1290 2 14.4 27.2 8.0
1291 1 16.0 25.6 6.4
1292 2 17.6 27.2 8.0
1293 2 19.2 25.6 6.4
1294 3 20.8 27.2 8.0
1295 1 22.4 25.6 6.4
1296 2 24.0 27.2 8.0
1297 2 25.6 25.6 6.4
1298 1 27.2 27.2 8.0
1299 3 28.8 25.6 6.4
1300 3 30.4 27.2 8.0
1301 1 32.0 25.6 6.4
1302 2 33.6 27.2 8.0
1303 1 35.2 25.6 6.4
1304 3 36.8 27.2 8.0
1305 2 38.4 25.6 6.4
1306 3 40.0 27.2 8.0
1307 1 41.6 25.6 6.4
1308 2 43.2 27.2 8.0
1309 1 44.8 25.6 6.4
1310 1 46.4 27.2 8.0
1311 2 48.0 25.6 6.4
1312 1 49.6 27.2 8.0
1313 3 0.0 28.8 6.4
1314 1 1.6 30.4 8.0
1315 1 3.2 28.8 6.4
1316 3 4.8 30.4 8.0
1317 3 6.4 28.8 6.4
1318 1 8.0 30.4 8.0
1319 1 9.6 28.8 6.4
1320 2 11.2 30.4 8.0
1321 1 12.8 28.8 6.4
1322 2 14.4 30.4 8.0
1323 1 16.0 28.8 6.4
1324 2 17.6 30.4 8.0
1325 3 19.2 28.8 6.4
1326 2 20.8 30.4 8.0
1327 2 22.4 28.8 6.4
1328 2 24.0 30.4 8.0
1329 1 25.6 28.8 6.4
1330 2 27.2 30.4 8.0
1331 2 28.8 28.8 6.4
1332 3 30.4 30.4 8.0
1333 1 32.0 28.8 6.4
1334 3 33.6 30.4 8.0
1335 3 35.2 28.8 6.4
1336 1 36.8 30.4 8.0
1337 3 38.4 28.8 6.4
1338 2 40.0 30.4 8.0
1339 2 41.6 28.8 6.4
1340 2 43.2 30.4 8.0
1341 1 44.8 28.8 6.4
1342 1 46.4 30.4 8.0
1343 2 48.0 28.8 6.4
1344 1 49.6 30.4 8.0
1345 2 0.0 32.0 6.4
1346 1 1.6 33.6 8.0
1347 3 3.2 32.0 6.4
1348 1 4.8 33.6 8.0
1349 2 6.4 32.0 6.4
1350 3 8.0 33.6 8.0
1351 1 9.6 32.0 6.4
1352 1 11.2 33.6 8.0
1353 2 12.8 32.0 6.4
1354 2 14.4 33.6 8.0
1355 3 16.0 32.0 6.4
1356 2 17.6 33.6 8.0
1357 3 19.2 32.0 6.4
1358 3 20.8 33.6 8.0
1359 2 22.4 32.0 6.4
1360 1 24.0 33.6 8.0
1361 2 25.6 32.0 6.4
1362 3 27.2 33.6 8.0
1363 1 28.8 32.0 6.4
1364 1 30.4 33.6 8.0
1365 2 32.0 32.0 6.4
1366 2 33.6 33.6 8.0
1367 2 35.2 32.0 6.4
1368 3 36.8 33.6 8.0
1369 1 38.4 32.0 6.4
1370 2 40.0 33.6 8.0
1371 2 41.6 32.0 6.4
1372 3 43.2 33.6 8.0
1373 2 44.8 32.0 6.4
1374 1 46.4 33.6 8.0
1375 3 48.0 32.0 6.4
1376 1 49.6 33.6 8.0
1377 3 0.0 35.2 6.4
1378 1 1.6 36.8 8.0
1379 1 3.2 35.2 6.4
1380 1 4.8 36.8 8.0
1381 1 6.4 35.2 6.4
1382 1 8.0 36.8 8.0
1383 1 9.6 35.2 6.4
1384 2 11.2 36.8 8.0
1385 3 12.8 35.2 6.4
1386 1 14.4 36.8 8.0
1387 3 16.0 35.2 6.4
1388 1 17.6 36.8 8.0
1389 2 19.2 35.2 6.4
1390 1 20.8 36.8 8.0
1391 2 22.4 35.2 6.4
1392 2 24.0 36.8 8.0
1393 3 25.6 35.2 6.4
1394 1 27.2 36.8 8.0
1395 2 28.8 35.2 6.4
1396 3 30.4 36.8 8.0
1397 2 32.0 35.2 6.4
1398 2 33.6 36.8 8.0
1399 2 35.2 35.2 6.4
1400 1 36.8 36.8 8.0
1401 2 38.4 35.2 6.4
1402 1 40.0 36.8 8.0
1403 2 41.6 35.2 6.4
1404 1 43.2 36.8 8.0
1405 3 44.8 35.2 6.4
1406 2 46.4 36.8 8.0
1407 2 48.0 35.2 6.4
1408 1 49.6 36.8 8.0
1409 1 0.0 38.4 6.4
1410 1 1.6 40.0 8.0
1411 2 3.2 38.4 6.4
1412 1 4.8 40.0 8.0
1413 3 6.4 38.4 6.4
1414 2 8.0 40.0 8.0
1415 1 9.6 38.4 6.4
1416 2 11.2 40.0 8.0
1417 1 12.8 38.4 6.4
1418 2 14.4 40.0 8.0
1419 1 16.0 38.4 6.4
1420 1 17.6 40.0 8.0
1421 1 19.2 38.4 6.4
1422 2 20.8 40.0 8.0
1423 2 22.4 38.4 6.4
1424 2 24.0 40.0 8.0
1425 1 25.6 38.4 6.4
1426 3 27.2 40.0 8.0
1427 1 28.8 38.4 6.4
1428 1 30.4 40.0 8.0
1429 1 32.0 38.4 6.4
1430 2 33.6 40.0 8.0
1431 1 35.2 38.4 6.4
1432 3 36.8 40.0 8.0
1433 2 38.4 38.4 6.4
1434 1 40.0 40.0 8.0
1435 2 41.6 38.4 6.4
1436 3 43.2 40.0 8.0
1437 3 44.8 38.4 6.4
1438 2 46.4 40.0 8.0
1439 2 48.0 38.4 6.4
1440 2 49.6 40.0 8.0
1441 2 0.0 41.6 6.4
1442 2 1.6 43.2 8.0
1443 2 3.2 41.6 6.4
1444 2 4.8 43.2 8.0
1445 1 6.4 41.6 6.4
1446 2 8.0 43.2 8.0
1447 1 9.6 41.6 6.4
1448 1 11.2 43.2 8.0
1449 2 12.8 41.6 6.4
1450 3 14.4 43.2 8.0
1451 2 16.0 41.6 6.4
1452 2 17.6 43.2 8.0
1453 2 19.2 41.6 6.4
1454 1 20.8 43.2 8.0
1455 1 22.4 41.6 6.4
1456 1 24.0 43.2 8.0
1457 2 25.6 41.6 6.4
1458 2 27.2 43.2 8.0
1459 2 28.8 41.6 6.4
1460 3 30.4 43.2 8.0
1461 2 32.0 41.6 6.4
1462 2 33.6 43.2 8.0
1463 1 35.2 41.6 6.4
1464 1 36.8 43.2 8.0
1465 3 38.4 41.6 6.4
1466 3 40.0 43.2 8.0
1467 2 41.6 41.6 6.4
1468 1 43.2 43.2 8.0
1469 2 44.8 41.6 6.4
1470 3 46.4 43.2 8.0
1471 1 48.0 41.6 6.4
1472 1 49.6 43.2 8.0
1473 1 0.0 44.8 6.4
1474 3 1.6 46.4 8.0
1475 1 3.2 44.8 6.4
1476 3 4.8 46.4 8.0
1477 1 6.4 44.8 6.4
1478 1 8.0 46.4 8.0
1479 2 9.6 44.8 6.4
1480 1 11.2 46.4 8.0
1481 2 12.8 44.8 6.4
1482 1 14.4 46.4 8.0
1483 2 16.0 44.8 6.4
1484 3 17.6 46.4 8.0
1485 2 19.2 44.8 6.4
1486 2 20.8 46.4 8.0
1487 2 22.4 44.8 6.4
1488 2 24.0 46.4 8.0
1489 2 25.6 44.8 6.4
1490 2 27.2 46.4 8.0
1491 1 28.8 44.8 6.4
1492 2 30.4 46.4 8.0
1493 3 32.0 44.8 6.4
1494 1 33.6 46.4 8.0
1495 1 35.2 44.8 6.4
1496 2 36.8 46.4 8.0
1497 3 38.4 44.8 6.4
1498 1 40.0 46.4 8.0
1499 1 41.6 44.8 6.4
1500 2 43.2 46.4 8.0