ITEM: TIMESTEP
0
ITEM: NUMBER OF ATOMS
8192
ITEM: BOX BOUNDS pp pp pp
0.0000000000000000e+00 5.1200000000000003e+01
0.0000000000000000e+00 5.1200000000000003e+01
0.0000000000000000e+00 5.1200000000000003e+01
ITEM: ATOMS id type x y z c_eng
1 2 0 0 0 -10.0892
2 3 1.6 1.6 1.6 -11.649
3 3 3.2 0 0 -11.64
4 3 4.8 1.6 1.6 -11.5797
5 3 6.4 0 0 -11.5993
6 3 8 1.6 1.6 -11.6248
7 2 9.6 0 0 -10.0395
8 3 11.2 1.6 1.6 -11.6219
9 3 12.8 0 0 -11.6342
10 3 14.4 1.6 1.6 -11.6907
11 3 16 0 0 -11.6167
12 3 17.6 1.6 1.6 -11.669
13 3 19.2 0 0 -11.6701
14 3 20.8 1.6 1.6 -11.4968
15 3 22.4 0 0 -11.579
16 3 24 1.6 1.6 -11.5345
17 2 25.6 0 0 -10.009
18 3 27.2 1.6 1.6 -11.6536
19 3 28.8 0 0 -11.662
20 3 30.4 1.6 1.6 -11.5861
21 3 32 0 0 -11.6485
22 3 33.6 1.6 1.6 -11.6355
23 3 35.2 0 0 -11.6274
24 3 36.8 1.6 1.6 -11.5406
25 3 38.4 0 0 -11.6017
26 3 40 1.6 1.6 -11.6145
27 3 41.6 0 0 -11.6775
28 3 43.2 1.6 1.6 -11.6774
29 3 44.8 0 0 -11.6494
30 3 46.4 1.6 1.6 -11.6285
31 3 48 0 0 -11.586
32 3 49.6 1.6 1.6 -11.6689
33 3 0 3.2 0 -11.6169
34 3 1.6 4.8 1.6 -11.6312
35 3 3.2 3.2 0 -11.6307
36 3 4.8 4.8 1.6 -11.5798
37 1 6.4 3.2 0 -11.979
38 3 8 4.8 1.6 -11.6246
39 3 9.6 3.2 0 -11.5176
40 3 11.2 4.8 1.6 -11.6603
41 3 12.8 3.2 0 -11.6776
42 3 14.4 4.8 1.6 -11.5899
43 3 16 3.2 0 -11.6771
44 3 17.6 4.8 1.6 -11.6345
45 3 19.2 3.2 0 -11.6388
46 3 20.8 4.8 1.6 -11.5818
47 3 22.4 3.2 0 -11.5238
48 3 24 4.8 1.6 -11.5974
49 2 25.6 3.2 0 -10.0346
50 3 27.2 4.8 1.6 -11.6207
51 3 28.8 3.2 0 -11.6438
52 2 30.4 4.8 1.6 -10.0679
53 3 32 3.2 0 -11.6222
54 3 33.6 4.8 1.6 -11.5837
55 3 35.2 3.2 0 -11.5561
56 3 36.8 4.8 1.6 -11.5471
57 3 38.4 3.2 0 -11.5894
58 3 40 4.8 1.6 -11.5783
59 3 41.6 3.2 0 -11.6909
60 3 43.2 4.8 1.6 -11.6457
61 3 44.8 3.2 0 -11.5102
62 3 46.4 4.8 1.6 -11.5981
63 1 48 3.2 0 -12.0314
64 3 49.6 4.8 1.6 -11.6105
65 3 0 6.4 0 -11.6189
66 3 1.6 8 1.6 -11.6271
67 3 3.2 6.4 0 -11.6837
68 2 4.8 8 1.6 -10.0893
69 3 6.4 6.4 0 -11.5076
70 3 8 8 1.6 -11.6213
71 2 9.6 6.4 0 -10.061
72 3 11.2 8 1.6 -11.5062
73 3 12.8 6.4 0 -11.5678
74 1 14.4 8 1.6 -11.9245
75 2 16 6.4 0 -10.064
76 2 17.6 8 1.6 -10.0144
77 3 19.2 6.4 0 -11.5761
78 2 20.8 8 1.6 -10.0569
79 1 22.4 6.4 0 -11.9504
80 3 24 8 1.6 -11.4201
81 2 25.6 6.4 0 -9.82722
82 3 27.2 8 1.6 -11.4958
83 3 28.8 6.4 0 -11.554
84 2 30.4 8 1.6 -10.0225
85 1 32 6.4 0 -11.998
86 3 33.6 8 1.6 -11.5531
87 2 35.2 6.4 0 -9.99192
88 3 36.8 8 1.6 -11.5349
89 1 38.4 6.4 0 -11.8274
90 1 40 8 1.6 -11.8455
91 3 41.6 6.4 0 -11.5794
92 2 43.2 8 1.6 -9.83306
93 3 44.8 6.4 0 -11.5964
94 3 46.4 8 1.6 -11.5744
95 2 48 6.4 0 -10.0323
96 2 49.6 8 1.6 -10.0778
97 3 0 9.6 0 -11.6477
98 3 1.6 11.2 1.6 -11.6562
99 3 3.2 9.6 0 -11.599
100 3 4.8 11.2 1.6 -11.5706
101 2 6.4 9.6 0 -10.0632
102 3 8 11.2 1.6 -11.5776
103 2 9.6 9.6 0 -10.0402
104 1 11.2 11.2 1.6 -11.9394
105 3 12.8 9.6 0 -11.6291
106 3 14.4 11.2 1.6 -11.4793
107 3 16 9.6 0 -11.6455
108 3 17.6 11.2 1.6 -11.5606
109 3 19.2 9.6 0 -11.6536
110 2 20.8 11.2 1.6 -10.0675
111 3 22.4 9.6 0 -11.4928
112 3 24 11.2 1.6 -11.5626
113 1 25.6 9.6 0 -11.8511
114 3 27.2 11.2 1.6 -11.5775
115 3 28.8 9.6 0 -11.6046
116 3 30.4 11.2 1.6 -11.5543
117 3 32 9.6 0 -11.5813
118 1 33.6 11.2 1.6 -11.9351
119 3 35.2 9.6 0 -11.5994
120 3 36.8 11.2 1.6 -11.5771
121 2 38.4 9.6 0 -10.0217
122 3 40 11.2 1.6 -11.2295
123 3 41.6 9.6 0 -11.3324
124 1 43.2 11.2 1.6 -11.7948
125 2 44.8 9.6 0 -10.0056
126 2 46.4 11.2 1.6 -9.9817
127 3 48 9.6 0 -11.5128
128 2 49.6 11.2 1.6 -10.0136
129 3 0 12.8 0 -11.6035
130 3 1.6 14.4 1.6 -11.6336
131 1 3.2 12.8 0 -11.9306
132 3 4.8 14.4 1.6 -11.5603
133 3 6.4 12.8 0 -11.5322
134 3 8 14.4 1.6 -11.6836
135 3 9.6 12.8 0 -11.6251
136 3 11.2 14.4 1.6 -11.5805
137 3 12.8 12.8 0 -11.6047
138 2 14.4 14.4 1.6 -10.0435
139 3 16 12.8 0 -11.5637
140 3 17.6 14.4 1.6 -11.5799
141 2 19.2 12.8 0 -10.0073
142 3 20.8 14.4 1.6 -11.5996
143 3 22.4 12.8 0 -11.6315
144 2 24 14.4 1.6 -10.0494
145 3 25.6 12.8 0 -11.5993
146 3 27.2 14.4 1.6 -11.6354
147 3 28.8 12.8 0 -11.6564
148 3 30.4 14.4 1.6 -11.579
149 3 32 12.8 0 -11.5748
150 3 33.6 14.4 1.6 -11.559
151 3 35.2 12.8 0 -11.6473
152 2 36.8 14.4 1.6 -10.0404
153 3 38.4 12.8 0 -11.514
154 1 40 14.4 1.6 -11.9222
155 1 41.6 12.8 0 -11.8335
156 3 43.2 14.4 1.6 -11.403
157 3 44.8 12.8 0 -11.4491
158 3 46.4 14.4 1.6 -11.6131
159 3 48 12.8 0 -11.5523
160 3 49.6 14.4 1.6 -11.5887
161 3 0 16 0 -11.5305
162 3 1.6 17.6 1.6 -11.6305
163 1 3.2 16 0 -11.9164
164 3 4.8 17.6 1.6 -11.6661
165 3 6.4 16 0 -11.6151
166 3 8 17.6 1.6 -11.6755
167 3 9.6 16 0 -11.6561
168 3 11.2 17.6 1.6 -11.6328
169 3 12.8 16 0 -11.5766
170 2 14.4 17.6 1.6 -10.0436
171 2 16 16 0 -10.0276
172 3 17.6 17.6 1.6 -11.5945
173 3 19.2 16 0 -11.5955
174 3 20.8 17.6 1.6 -11.6248
175 3 22.4 16 0 -11.5891
176 2 24 17.6 1.6 -9.9854
177 2 25.6 16 0 -10.0274
178 3 27.2 17.6 1.6 -11.5792
179 2 28.8 16 0 -10.0544
180 3 30.4 17.6 1.6 -11.6601
181 3 32 16 0 -11.5917
182 3 33.6 17.6 1.6 -11.6055
183 3 35.2 16 0 -11.6093
184 3 36.8 17.6 1.6 -11.5713
185 2 38.4 16 0 -10.0501
186 3 40 17.6 1.6 -11.5653
187 2 41.6 16 0 -9.87084
188 3 43.2 17.6 1.6 -11.6142
189 1 44.8 16 0 -11.9446
190 3 46.4 17.6 1.6 -11.6024
191 2 48 16 0 -9.98232
192 3 49.6 17.6 1.6 -11.5765
193 3 0 19.2 0 -11.6049
194 3 1.6 20.8 1.6 -11.5352
195 3 3.2 19.2 0 -11.5672
196 3 4.8 20.8 1.6 -11.666
197 3 6.4 19.2 0 -11.5866
198 3 8 20.8 1.6 -11.6377
199 2 9.6 19.2 0 -10.0471
200 3 11.2 20.8 1.6 -11.6176
201 1 12.8 19.2 0 -11.949
202 3 14.4 20.8 1.6 -11.4992
203 1 16 19.2 0 -11.9302
204 3 17.6 20.8 1.6 -11.6044
205 1 19.2 19.2 0 -12.0058
206 3 20.8 20.8 1.6 -11.5805
207 3 22.4 19.2 0 -11.5672
208 1 24 20.8 1.6 -11.8687
209 3 25.6 19.2 0 -11.4747
210 3 27.2 20.8 1.6 -11.5402
211 3 28.8 19.2 0 -11.586
212 3 30.4 20.8 1.6 -11.6688
213 1 32 19.2 0 -12.0297
214 3 33.6 20.8 1.6 -11.5716
215 3 35.2 19.2 0 -11.4453
216 2 36.8 20.8 1.6 -9.98743
217 2 38.4 19.2 0 -10.0152
218 3 40 20.8 1.6 -11.5878
219 3 41.6 19.2 0 -11.6407
220 2 43.2 20.8 1.6 -10.0299
221 3 44.8 19.2 0 -11.5562
222 2 46.4 20.8 1.6 -9.99825
223 3 48 19.2 0 -11.6461
224 1 49.6 20.8 1.6 -11.926
225 3 0 22.4 0 -11.5705
226 3 1.6 24 1.6 -11.6692
227 1 3.2 22.4 0 -12.0284
228 3 4.8 24 1.6 -11.6664
229 3 6.4 22.4 0 -11.6309
230 3 8 24 1.6 -11.6042
231 3 9.6 22.4 0 -11.6087
232 3 11.2 24 1.6 -11.5976
233 3 12.8 22.4 0 -11.4831
234 2 14.4 24 1.6 -9.97802
235 2 16 22.4 0 -9.98488
236 3 17.6 24 1.6 -11.553
237 2 19.2 22.4 0 -9.95003
238 3 20.8 24 1.6 -11.6125
239 3 22.4 22.4 0 -11.5659
240 3 24 24 1.6 -11.5918
241 1 25.6 22.4 0 -11.9146
242 3 27.2 24 1.6 -11.6444
243 3 28.8 22.4 0 -11.6219
244 3 30.4 24 1.6 -11.6908
245 3 32 22.4 0 -11.5671
246 3 33.6 24 1.6 -11.5235
247 1 35.2 22.4 0 -11.9096
248 2 36.8 24 1.6 -9.99268
249 1 38.4 22.4 0 -11.9149
250 3 40 24 1.6 -11.57
251 3 41.6 22.4 0 -11.5991
252 2 43.2 24 1.6 -10.0423
253 3 44.8 22.4 0 -11.612
254 3 46.4 24 1.6 -11.612
255 3 48 22.4 0 -11.6351
256 3 49.6 24 1.6 -11.5886
257 3 0 25.6 0 -11.6627
259 3 3.2 25.6 0 -11.603
261 3 6.4 25.6 0 -11.579
263 3 9.6 25.6 0 -11.6702
265 2 12.8 25.6 0 -9.90469
267 1 16 25.6 0 -11.7564
269 1 19.2 25.6 0 -11.9231
271 3 22.4 25.6 0 -11.5889
273 3 25.6 25.6 0 -11.6116
275 3 28.8 25.6 0 -11.5994
277 3 32 25.6 0 -11.6694
279 3 35.2 25.6 0 -11.5739
281 3 38.4 25.6 0 -11.5105
283 2 41.6 25.6 0 -10.0306
285 3 44.8 25.6 0 -11.6409
287 3 48 25.6 0 -11.6485
258 3 1.6 27.2 1.6 -11.6351
289 3 0 28.8 0 -11.6312
260 3 4.8 27.2 1.6 -11.6087
291 3 3.2 28.8 0 -11.6443
262 3 8 27.2 1.6 -11.6701
293 3 6.4 28.8 0 -11.6677
264 3 11.2 27.2 1.6 -11.6025
295 3 9.6 28.8 0 -11.6833
266 1 14.4 27.2 1.6 -11.7848
297 3 12.8 28.8 0 -11.5855
268 3 17.6 27.2 1.6 -11.5365
299 3 16 28.8 0 -11.51
270 3 20.8 27.2 1.6 -11.5691
301 2 19.2 28.8 0 -10.0294
272 2 24 27.2 1.6 -10.0625
303 2 22.4 28.8 0 -10.0307
305 3 25.6 28.8 0 -11.5654
274 3 27.2 27.2 1.6 -11.638
307 1 28.8 28.8 0 -11.8735
276 3 30.4 27.2 1.6 -11.5103
309 3 32 28.8 0 -11.4098
278 1 33.6 27.2 1.6 -12.0087
311 3 35.2 28.8 0 -11.5436
280 3 36.8 27.2 1.6 -11.5434
313 3 38.4 28.8 0 -11.6521
282 3 40 27.2 1.6 -11.6092
315 3 41.6 28.8 0 -11.5792
284 2 43.2 27.2 1.6 -10.0363
317 3 44.8 28.8 0 -11.555
286 3 46.4 27.2 1.6 -11.6544
319 2 48 28.8 0 -10.0343
288 3 49.6 27.2 1.6 -11.6221
290 2 1.6 30.4 1.6 -10.0756
321 2 0 32 0 -10.0173
292 3 4.8 30.4 1.6 -11.5917
323 3 3.2 32 0 -11.6406
294 3 8 30.4 1.6 -11.6022
325 3 6.4 32 0 -11.5759
296 3 11.2 30.4 1.6 -11.649
327 3 9.6 32 0 -11.6629
298 3 14.4 30.4 1.6 -11.5863
329 3 12.8 32 0 -11.5884
300 3 17.6 30.4 1.6 -11.6626
331 2 16 32 0 -10.0892
302 3 20.8 30.4 1.6 -11.6352
333 3 19.2 32 0 -11.6087
304 3 24 30.4 1.6 -11.5987
335 3 22.4 32 0 -11.6312
337 3 25.6 32 0 -11.6619
306 3 27.2 30.4 1.6 -11.5421
339 3 28.8 32 0 -11.5606
308 1 30.4 30.4 1.6 -11.9024
341 3 32 32 0 -11.446
310 2 33.6 30.4 1.6 -9.97506
343 1 35.2 32 0 -11.9377
312 3 36.8 30.4 1.6 -11.6383
345 3 38.4 32 0 -11.5919
314 3 40 30.4 1.6 -11.6042
347 3 41.6 32 0 -11.6776
316 3 43.2 30.4 1.6 -11.6457
349 3 44.8 32 0 -11.5807
318 3 46.4 30.4 1.6 -11.5645
351 1 48 32 0 -11.9408
320 3 49.6 30.4 1.6 -11.6227
322 3 1.6 33.6 1.6 -11.6311
353 3 0 35.2 0 -11.6232
324 3 4.8 33.6 1.6 -11.6664
355 2 3.2 35.2 0 -10.0908
326 3 8 33.6 1.6 -11.5893
357 3 6.4 35.2 0 -11.6627
328 2 11.2 33.6 1.6 -10.0675
359 3 9.6 35.2 0 -11.6223
330 2 14.4 33.6 1.6 -10.0172
361 3 12.8 35.2 0 -11.6579
332 2 17.6 33.6 1.6 -10.0637
363 3 16 35.2 0 -11.5437
334 2 20.8 33.6 1.6 -10.0602
365 2 19.2 35.2 0 -10.061
336 3 24 33.6 1.6 -11.6108
367 3 22.4 35.2 0 -11.6406
369 3 25.6 35.2 0 -11.6308
338 2 27.2 33.6 1.6 -10.0804
371 3 28.8 35.2 0 -11.6623
340 3 30.4 33.6 1.6 -11.5634
373 3 32 35.2 0 -11.5227
342 2 33.6 33.6 1.6 -10.0497
375 1 35.2 35.2 0 -11.9167
344 3 36.8 33.6 1.6 -11.5946
377 3 38.4 35.2 0 -11.5685
346 3 40 33.6 1.6 -11.6747
379 3 41.6 35.2 0 -11.6558
348 3 43.2 33.6 1.6 -11.6489
381 3 44.8 35.2 0 -11.6625
350 2 46.4 33.6 1.6 -10.0401
383 3 48 35.2 0 -11.5705
352 3 49.6 33.6 1.6 -11.5559
354 2 1.6 36.8 1.6 -10.0381
385 3 0 38.4 0 -11.6141
356 3 4.8 36.8 1.6 -11.6018
387 3 3.2 38.4 0 -11.5766
358 2 8 36.8 1.6 -10.0427
389 3 6.4 38.4 0 -11.6558
360 3 11.2 36.8 1.6 -11.5446
391 3 9.6 38.4 0 -11.6369
362 1 14.4 36.8 1.6 -12.0077
393 3 12.8 38.4 0 -11.5805
364 3 17.6 36.8 1.6 -11.5077
395 3 16 38.4 0 -11.5808
366 3 20.8 36.8 1.6 -11.6535
397 3 19.2 38.4 0 -11.656
368 3 24 36.8 1.6 -11.6672
399 3 22.4 38.4 0 -11.6971
401 3 25.6 38.4 0 -11.6829
370 3 27.2 36.8 1.6 -11.6018
403 3 28.8 38.4 0 -11.6431
372 2 30.4 36.8 1.6 -10.0464
405 3 32 38.4 0 -11.5131
374 3 33.6 36.8 1.6 -11.4833
407 2 35.2 38.4 0 -10.0164
376 3 36.8 36.8 1.6 -11.6578
409 3 38.4 38.4 0 -11.5918
378 3 40 36.8 1.6 -11.6113
411 3 41.6 38.4 0 -11.6339
380 3 43.2 36.8 1.6 -11.6118
413 2 44.8 38.4 0 -10.0896
382 3 46.4 36.8 1.6 -11.5761
415 3 48 38.4 0 -11.5217
384 1 49.6 36.8 1.6 -11.9998
386 3 1.6 40 1.6 -11.6354
417 3 0 41.6 0 -11.602
388 3 4.8 40 1.6 -11.5943
419 2 3.2 41.6 0 -10.0753
390 1 8 40 1.6 -12.0199
421 3 6.4 41.6 0 -11.5882
392 3 11.2 40 1.6 -11.4997
423 3 9.6 41.6 0 -11.5806
394 1 14.4 40 1.6 -11.8966
425 2 12.8 41.6 0 -10.0021
396 1 17.6 40 1.6 -11.928
427 2 16 41.6 0 -9.97598
398 3 20.8 40 1.6 -11.5782
429 3 19.2 41.6 0 -11.5785
400 3 24 40 1.6 -11.6697
431 3 22.4 41.6 0 -11.609
433 3 25.6 41.6 0 -11.6533
402 2 27.2 40 1.6 -10.0617
435 3 28.8 41.6 0 -11.6097
404 2 30.4 40 1.6 -9.98805
437 2 32 41.6 0 -10.0647
406 2 33.6 40 1.6 -10.0485
439 2 35.2 41.6 0 -9.99921
408 3 36.8 40 1.6 -11.6006
441 1 38.4 41.6 0 -11.9436
410 3 40 40 1.6 -11.5904
443 3 41.6 41.6 0 -11.5678
412 3 43.2 40 1.6 -11.6745
445 3 44.8 41.6 0 -11.5951
414 3 46.4 40 1.6 -11.653
447 2 48 41.6 0 -10.0275
416 3 49.6 40 1.6 -11.5443
418 3 1.6 43.2 1.6 -11.6489
449 3 0 44.8 0 -11.5893
420 3 4.8 43.2 1.6 -11.6543
451 3 3.2 44.8 0 -11.6179
422 3 8 43.2 1.6 -11.6221
453 2 6.4 44.8 0 -10.0894
424 3 11.2 43.2 1.6 -11.5677
455 3 9.6 44.8 0 -11.5915
426 1 14.4 43.2 1.6 -11.965
457 3 12.8 44.8 0 -11.6059
428 3 17.6 43.2 1.6 -11.5107
459 3 16 44.8 0 -11.5813
430 3 20.8 43.2 1.6 -11.5842
461 3 19.2 44.8 0 -11.5772
432 3 24 43.2 1.6 -11.601
463 1 22.4 44.8 0 -11.9173
465 2 25.6 44.8 0 -9.9829
434 3 27.2 43.2 1.6 -11.5758
467 3 28.8 44.8 0 -11.6477
436 1 30.4 43.2 1.6 -11.9528
469 3 32 44.8 0 -11.459
438 3 33.6 43.2 1.6 -11.4035
471 3 35.2 44.8 0 -11.5792
440 2 36.8 43.2 1.6 -10.0314
473 3 38.4 44.8 0 -11.5401
442 1 40 43.2 1.6 -11.9161
475 2 41.6 44.8 0 -10.0208
444 3 43.2 43.2 1.6 -11.5655
477 1 44.8 44.8 0 -11.8756
446 3 46.4 43.2 1.6 -11.5259
479 1 48 44.8 0 -11.7865
448 3 49.6 43.2 1.6 -11.5763
450 3 1.6 46.4 1.6 -11.5533
481 3 0 48 0 -11.4926
452 2 4.8 46.4 1.6 -10.0909
483 2 3.2 48 0 -10.0906
454 3 8 46.4 1.6 -11.612
485 3 6.4 48 0 -11.586
456 3 11.2 46.4 1.6 -11.6566
487 1 9.6 48 0 -12.0204
458 3 14.4 46.4 1.6 -11.6082
489 2 12.8 48 0 -10.0455
460 2 17.6 46.4 1.6 -10.0745
491 3 16 48 0 -11.67
462 2 20.8 46.4 1.6 -10.0228
493 3 19.2 48 0 -11.6657
464 2 24 46.4 1.6 -10.0622
495 3 22.4 48 0 -11.5779
497 3 25.6 48 0 -11.5865
466 3 27.2 46.4 1.6 -11.6406
499 3 28.8 48 0 -11.6769
468 3 30.4 46.4 1.6 -11.5082
501 2 32 48 0 -10.0544
470 1 33.6 46.4 1.6 -11.9034
503 2 35.2 48 0 -10.0681
472 3 36.8 46.4 1.6 -11.5671
505 3 38.4 48 0 -11.6002
474 2 40 46.4 1.6 -9.97154
507 3 41.6 48 0 -11.6126
476 2 43.2 46.4 1.6 -10.0118
509 2 44.8 48 0 -9.99359
478 1 46.4 46.4 1.6 -11.7483
511 2 48 48 0 -9.95716
480 1 49.6 46.4 1.6 -11.8171
482 2 1.6 49.6 1.6 -10.0777
484 3 4.8 49.6 1.6 -11.6491
486 3 8 49.6 1.6 -11.6562
488 3 11.2 49.6 1.6 -11.6447
490 3 14.4 49.6 1.6 -11.6211
492 3 17.6 49.6 1.6 -11.627
494 2 20.8 49.6 1.6 -10.0662
496 3 24 49.6 1.6 -11.5885
498 3 27.2 49.6 1.6 -11.6698
500 3 30.4 49.6 1.6 -11.6837
502 3 33.6 49.6 1.6 -11.6003
504 3 36.8 49.6 1.6 -11.5756
506 1 40 49.6 1.6 -11.9429
508 3 43.2 49.6 1.6 -11.6085
510 3 46.4 49.6 1.6 -11.5889
512 3 49.6 49.6 1.6 -11.5777
513 3 0 0 3.2 -11.6313
514 2 1.6 1.6 4.8 -9.95351
515 3 3.2 0 3.2 -11.5755
516 1 4.8 1.6 4.8 -11.9099
517 3 6.4 0 3.2 -11.6567
518 3 8 1.6 4.8 -11.5909
519 3 9.6 0 3.2 -11.5723
520 3 11.2 1.6 4.8 -11.6689
521 3 12.8 0 3.2 -11.6564
522 3 14.4 1.6 4.8 -11.6117
523 2 16 0 3.2 -10.0639
524 3 17.6 1.6 4.8 -11.5545
525 3 19.2 0 3.2 -11.4969
526 1 20.8 1.6 4.8 -11.8222
527 1 22.4 0 3.2 -11.8947
528 3 24 1.6 4.8 -11.5178
529 3 25.6 0 3.2 -11.5761
530 3 27.2 1.6 4.8 -11.5255
531 3 28.8 0 3.2 -11.6251
532 1 30.4 1.6 4.8 -11.8544
533 2 32 0 3.2 -10.0117
534 2 33.6 1.6 4.8 -9.92051
535 2 35.2 0 3.2 -9.93327
536 1 36.8 1.6 4.8 -11.8615
537 1 38.4 0 3.2 -11.8799
538 3 40 1.6 4.8 -11.6145
539 3 41.6 0 3.2 -11.6144
540 3 43.2 1.6 4.8 -11.6338
541 3 44.8 0 3.2 -11.6307
542 2 46.4 1.6 4.8 -10.0545
543 3 48 0 3.2 -11.6701
544 3 49.6 1.6 4.8 -11.5437
545 3 0 3.2 3.2 -11.5638
546 1 1.6 4.8 4.8 -11.8885
547 3 3.2 3.2 3.2 -11.5622
548 1 4.8 4.8 4.8 -11.9214
549 2 6.4 3.2 3.2 -10.0099
550 3 8 4.8 4.8 -11.599
551 2 9.6 3.2 3.2 -10.0739
552 3 11.2 4.8 4.8 -11.6687
553 3 12.8 3.2 3.2 -11.6169
554 3 14.4 4.8 4.8 -11.6558
555 3 16 3.2 3.2 -11.5724
556 3 17.6 4.8 4.8 -11.6083
557 1 19.2 3.2 3.2 -11.9317
558 3 20.8 4.8 4.8 -11.5035
559 1 22.4 3.2 3.2 -11.875
560 3 24 4.8 4.8 -11.6246
561 2 25.6 3.2 3.2 -9.9978
562 3 27.2 4.8 4.8 -11.6226
563 3 28.8 3.2 3.2 -11.5809
564 3 30.4 4.8 4.8 -11.4594
565 3 32 3.2 3.2 -11.5556
566 2 33.6 4.8 4.8 -10.0704
567 1 35.2 3.2 3.2 -11.9216
568 3 36.8 4.8 4.8 -11.5664
569 3 38.4 3.2 3.2 -11.5222
570 3 40 4.8 4.8 -11.6624
571 3 41.6 3.2 3.2 -11.6385
572 3 43.2 4.8 4.8 -11.5668
573 1 44.8 3.2 3.2 -11.9968
574 2 46.4 4.8 4.8 -10.0503
575 3 48 3.2 3.2 -11.5446
576 2 49.6 4.8 4.8 -10.0201
577 2 0 6.4 3.2 -10.0833
578 3 1.6 8 4.8 -11.5776
579 3 3.2 6.4 3.2 -11.5849
580 3 4.8 8 4.8 -11.4839
581 3 6.4 6.4 3.2 -11.6381
582 2 8 8 4.8 -10.0763
583 3 9.6 6.4 3.2 -11.5627
584 3 11.2 8 4.8 -11.6476
585 1 12.8 6.4 3.2 -11.9638
586 3 14.4 8 4.8 -11.5092
587 2 16 6.4 3.2 -10.0107
588 2 17.6 8 4.8 -10.0568
589 3 19.2 6.4 3.2 -11.5203
590 3 20.8 8 4.8 -11.5993
591 3 22.4 6.4 3.2 -11.5086
592 2 24 8 4.8 -10.0421
593 2 25.6 6.4 3.2 -10.0149
594 2 27.2 8 4.8 -9.9097
595 3 28.8 6.4 3.2 -11.6234
596 1 30.4 8 4.8 -11.9359
597 3 32 6.4 3.2 -11.4809
598 3 33.6 8 4.8 -11.5664
599 3 35.2 6.4 3.2 -11.5636
600 3 36.8 8 4.8 -11.6216
601 2 38.4 6.4 3.2 -10.0185
602 2 40 8 4.8 -9.91009
603 3 41.6 6.4 3.2 -11.491
604 1 43.2 8 4.8 -11.829
605 2 44.8 6.4 3.2 -9.96965
606 3 46.4 8 4.8 -11.4483
607 3 48 6.4 3.2 -11.5861
608 3 49.6 8 4.8 -11.5674
609 3 0 9.6 3.2 -11.6401
610 3 1.6 11.2 4.8 -11.6026
611 3 3.2 9.6 3.2 -11.6046
612 1 4.8 11.2 4.8 -11.956
613 3 6.4 9.6 3.2 -11.5915
614 3 8 11.2 4.8 -11.5997
615 2 9.6 9.6 3.2 -10.072
616 3 11.2 11.2 4.8 -11.5811
617 3 12.8 9.6 3.2 -11.4861
618 3 14.4 11.2 4.8 -11.6103
619 3 16 9.6 3.2 -11.5542
620 2 17.6 11.2 4.8 -10.046
621 3 19.2 9.6 3.2 -11.5652
622 3 20.8 11.2 4.8 -11.578
623 2 22.4 9.6 3.2 -10.0455
624 2 24 11.2 4.8 -9.99682
625 1 25.6 9.6 3.2 -11.8645
626 1 27.2 11.2 4.8 -11.8455
627 3 28.8 9.6 3.2 -11.5058
628 2 30.4 11.2 4.8 -9.96508
629 2 32 9.6 3.2 -10.006
630 3 33.6 11.2 4.8 -11.5254
631 2 35.2 9.6 3.2 -10.0683
632 2 36.8 11.2 4.8 -10.0466
633 3 38.4 9.6 3.2 -11.4391
634 1 40 11.2 4.8 -11.9176
635 1 41.6 9.6 3.2 -11.7284
636 3 43.2 11.2 4.8 -11.3362
637 1 44.8 9.6 3.2 -11.7626
638 2 46.4 11.2 4.8 -10.0387
639 3 48 9.6 3.2 -11.6008
640 3 49.6 11.2 4.8 -11.5322
641 3 0 12.8 3.2 -11.6475
642 3 1.6 14.4 4.8 -11.5186
643 3 3.2 12.8 3.2 -11.592
644 3 4.8 14.4 4.8 -11.602
645 2 6.4 12.8 3.2 -10.0838
646 3 8 14.4 4.8 -11.6836
647 3 9.6 12.8 3.2 -11.5439
648 3 11.2 14.4 4.8 -11.6472
649 1 12.8 12.8 3.2 -11.9271
650 3 14.4 14.4 4.8 -11.5709
651 1 16 12.8 3.2 -11.9152
652 3 17.6 14.4 4.8 -11.5244
653 1 19.2 12.8 3.2 -11.947
654 2 20.8 14.4 4.8 -10.0593
655 3 22.4 12.8 3.2 -11.5804
656 3 24 14.4 4.8 -11.5659
657 3 25.6 12.8 3.2 -11.4421
658 3 27.2 14.4 4.8 -11.5248
659 3 28.8 12.8 3.2 -11.5675
660 2 30.4 14.4 4.8 -10.0611
661 1 32 12.8 3.2 -11.9144
662 3 33.6 14.4 4.8 -11.6137
663 3 35.2 12.8 3.2 -11.4977
664 3 36.8 14.4 4.8 -11.6117
665 3 38.4 12.8 3.2 -11.6069
666 2 40 14.4 4.8 -9.98312
667 3 41.6 12.8 3.2 -11.4141
668 3 43.2 14.4 4.8 -11.6495
669 3 44.8 12.8 3.2 -11.5765
670 2 46.4 14.4 4.8 -10.0141
671 3 48 12.8 3.2 -11.5373
672 1 49.6 14.4 4.8 -11.8964
673 2 0 16 3.2 -10.0058
674 3 1.6 17.6 4.8 -11.6174
675 3 3.2 16 3.2 -11.5535
676 3 4.8 17.6 4.8 -11.6443
677 3 6.4 16 3.2 -11.635
678 3 8 17.6 4.8 -11.6215
679 2 9.6 16 3.2 -10.0879
680 3 11.2 17.6 4.8 -11.6701
681 3 12.8 16 3.2 -11.5763
682 3 14.4 17.6 4.8 -11.6084
683 2 16 16 3.2 -10.0276
684 3 17.6 17.6 4.8 -11.6474
685 3 19.2 16 3.2 -11.5322
686 2 20.8 17.6 4.8 -10.0706
687 3 22.4 16 3.2 -11.5776
688 3 24 17.6 4.8 -11.5119
689 1 25.6 16 3.2 -11.9494
690 3 27.2 17.6 4.8 -11.58
691 3 28.8 16 3.2 -11.5861
692 3 30.4 17.6 4.8 -11.6696
693 3 32 16 3.2 -11.5672
694 3 33.6 17.6 4.8 -11.6459
695 1 35.2 16 3.2 -11.996
696 3 36.8 17.6 4.8 -11.5563
697 3 38.4 16 3.2 -11.5535
698 2 40 17.6 4.8 -10.034
699 3 41.6 16 3.2 -11.6358
700 3 43.2 17.6 4.8 -11.5595
701 3 44.8 16 3.2 -11.5431
702 3 46.4 17.6 4.8 -11.6383
703 2 48 16 3.2 -10.0506
704 3 49.6 17.6 4.8 -11.5674
705 1 0 19.2 3.2 -11.9564
706 3 1.6 20.8 4.8 -11.6673
707 3 3.2 19.2 3.2 -11.6174
708 3 4.8 20.8 4.8 -11.6698
709 2 6.4 19.2 3.2 -10.088
710 3 8 20.8 4.8 -11.6046
711 3 9.6 19.2 3.2 -11.5723
712 3 11.2 20.8 4.8 -11.5796
713 3 12.8 19.2 3.2 -11.5816
714 1 14.4 20.8 4.8 -12
715 3 16 19.2 3.2 -11.5821
716 3 17.6 20.8 4.8 -11.5446
717 3 19.2 19.2 3.2 -11.5863
718 3 20.8 20.8 4.8 -11.5399
719 2 22.4 19.2 3.2 -10.016
720 3 24 20.8 4.8 -11.5613
721 1 25.6 19.2 3.2 -11.8883
722 3 27.2 20.8 4.8 -11.6563
723 2 28.8 19.2 3.2 -10.045
724 3 30.4 20.8 4.8 -11.6905
725 3 32 19.2 3.2 -11.5534
726 3 33.6 20.8 4.8 -11.5915
727 1 35.2 19.2 3.2 -11.9769
728 2 36.8 20.8 4.8 -9.98519
729 3 38.4 19.2 3.2 -11.4801
730 2 40 20.8 4.8 -10.0211
731 3 41.6 19.2 3.2 -11.5447
732 3 43.2 20.8 4.8 -11.4657
733 1 44.8 19.2 3.2 -11.9656
734 3 46.4 20.8 4.8 -11.5094
735 3 48 19.2 3.2 -11.457
736 3 49.6 20.8 4.8 -11.5783
737 2 0 22.4 3.2 -10.0163
738 3 1.6 24 4.8 -11.6698
739 3 3.2 22.4 3.2 -11.617
740 3 4.8 24 4.8 -11.5866
741 3 6.4 22.4 3.2 -11.5678
742 1 8 24 4.8 -11.9324
743 1 9.6 22.4 3.2 -11.9697
744 3 11.2 24 4.8 -11.568
745 2 12.8 22.4 3.2 -9.99411
746 3 14.4 24 4.8 -11.4935
747 3 16 22.4 3.2 -11.579
748 3 17.6 24 4.8 -11.6009
749 2 19.2 22.4 3.2 -10.0621
750 2 20.8 24 4.8 -10.0604
751 3 22.4 22.4 3.2 -11.5995
752 3 24 24 4.8 -11.6701
753 3 25.6 22.4 3.2 -11.5465
754 3 27.2 24 4.8 -11.6827
755 3 28.8 22.4 3.2 -11.6562
756 3 30.4 24 4.8 -11.6209
757 3 32 22.4 3.2 -11.6779
758 1 33.6 24 4.8 -11.9797
759 3 35.2 22.4 3.2 -11.4279
760 1 36.8 24 4.8 -11.9297
761 2 38.4 22.4 3.2 -10.0083
762 3 40 24 4.8 -11.5672
763 3 41.6 22.4 3.2 -11.5207
764 3 43.2 24 4.8 -11.5781
765 1 44.8 22.4 3.2 -11.9267
766 3 46.4 24 4.8 -11.6341
767 2 48 22.4 3.2 -10.0068
768 3 49.6 24 4.8 -11.6116
769 3 0 25.6 3.2 -11.6226
771 3 3.2 25.6 3.2 -11.6618
773 2 6.4 25.6 3.2 -10.084
775 3 9.6 25.6 3.2 -11.5225
777 1 12.8 25.6 3.2 -11.8528
779 3 16 25.6 3.2 -11.4805
781 3 19.2 25.6 3.2 -11.533
783 3 22.4 25.6 3.2 -11.6123
785 3 25.6 25.6 3.2 -11.649
787 2 28.8 25.6 3.2 -10.0747
789 3 32 25.6 3.2 -11.614
791 3 35.2 25.6 3.2 -11.5213
793 3 38.4 25.6 3.2 -11.58
795 1 41.6 25.6 3.2 -11.9576
797 3 44.8 25.6 3.2 -11.4823
799 2 48 25.6 3.2 -10.0707
770 2 1.6 27.2 4.8 -10.0331
801 3 0 28.8 3.2 -11.6333
772 2 4.8 27.2 4.8 -9.98249
803 3 3.2 28.8 3.2 -11.6474
774 3 8 27.2 4.8 -11.5198
805 3 6.4 28.8 3.2 -11.5355
776 3 11.2 27.2 4.8 -11.6051
807 3 9.6 28.8 3.2 -11.6565
778 1 14.4 27.2 4.8 -11.8838
809 3 12.8 28.8 3.2 -11.5334
780 3 17.6 27.2 4.8 -11.5399
811 3 16 28.8 3.2 -11.6103
782 2 20.8 27.2 4.8 -9.99764
813 3 19.2 28.8 3.2 -11.5443
784 3 24 27.2 4.8 -11.5845
815 1 22.4 28.8 3.2 -11.9533
817 2 25.6 28.8 3.2 -10.0318
786 3 27.2 27.2 4.8 -11.6306
819 3 28.8 28.8 3.2 -11.5568
788 3 30.4 27.2 4.8 -11.6536
821 3 32 28.8 3.2 -11.5481
790 2 33.6 27.2 4.8 -9.9796
823 2 35.2 28.8 3.2 -10.0621
792 3 36.8 27.2 4.8 -11.5781
825 3 38.4 28.8 3.2 -11.5723
794 3 40 27.2 4.8 -11.6333
827 1 41.6 28.8 3.2 -11.9793
796 3 43.2 27.2 4.8 -11.5951
829 2 44.8 28.8 3.2 -10.0446
798 3 46.4 27.2 4.8 -11.6031
831 3 48 28.8 3.2 -11.5885
800 1 49.6 27.2 4.8 -12.0012
802 3 1.6 30.4 4.8 -11.5861
833 2 0 32 3.2 -10.0756
804 1 4.8 30.4 4.8 -11.9224
835 3 3.2 32 3.2 -11.5811
806 1 8 30.4 4.8 -11.8917
837 1 6.4 32 3.2 -11.8812
808 3 11.2 30.4 4.8 -11.5199
839 2 9.6 32 3.2 -9.96791
810 2 14.4 30.4 4.8 -10.0421
841 3 12.8 32 3.2 -11.6531
812 3 17.6 30.4 4.8 -11.6352
843 3 16 32 3.2 -11.631
814 3 20.8 30.4 4.8 -11.5793
845 3 19.2 32 3.2 -11.6625
816 3 24 30.4 4.8 -11.5221
847 3 22.4 32 3.2 -11.5864
849 2 25.6 32 3.2 -10.0344
818 2 27.2 30.4 4.8 -10.0904
851 3 28.8 32 3.2 -11.592
820 3 30.4 30.4 4.8 -11.5217
853 2 32 32 3.2 -10.0781
822 3 33.6 30.4 4.8 -11.6218
855 3 35.2 32 3.2 -11.5527
824 3 36.8 30.4 4.8 -11.6654
857 2 38.4 32 3.2 -10.0739
826 3 40 30.4 4.8 -11.6507
859 3 41.6 32 3.2 -11.5628
828 3 43.2 30.4 4.8 -11.6125
861 3 44.8 32 3.2 -11.6345
830 3 46.4 30.4 4.8 -11.622
863 3 48 32 3.2 -11.5553
832 3 49.6 30.4 4.8 -11.5562
834 3 1.6 33.6 4.8 -11.6906
865 3 0 35.2 3.2 -11.6001
836 3 4.8 33.6 4.8 -11.6145
867 3 3.2 35.2 3.2 -11.609
838 3 8 33.6 4.8 -11.5529
869 3 6.4 35.2 3.2 -11.5672
840 3 11.2 33.6 4.8 -11.6011
871 1 9.6 35.2 3.2 -11.9827
842 3 14.4 33.6 4.8 -11.6311
873 3 12.8 35.2 3.2 -11.5562
844 3 17.6 33.6 4.8 -11.6205
875 3 16 35.2 3.2 -11.6016
846 3 20.8 33.6 4.8 -11.6429
877 2 19.2 35.2 3.2 -10.049
848 3 24 33.6 4.8 -11.6456
879 2 22.4 35.2 3.2 -10.0195
881 1 25.6 35.2 3.2 -12.0088
850 3 27.2 33.6 4.8 -11.5418
883 3 28.8 35.2 3.2 -11.5887
852 3 30.4 33.6 4.8 -11.6627
885 3 32 35.2 3.2 -11.589
854 3 33.6 33.6 4.8 -11.6615
887 3 35.2 35.2 3.2 -11.5867
856 3 36.8 33.6 4.8 -11.6427
889 2 38.4 35.2 3.2 -10.0457
858 3 40 33.6 4.8 -11.6339
891 2 41.6 35.2 3.2 -10.0513
860 2 43.2 33.6 4.8 -9.99541
893 3 44.8 35.2 3.2 -11.5472
862 1 46.4 33.6 4.8 -11.9666
895 2 48 35.2 3.2 -10.0653
864 3 49.6 33.6 4.8 -11.6119
866 3 1.6 36.8 4.8 -11.6454
897 2 0 38.4 3.2 -10.0366
868 3 4.8 36.8 4.8 -11.6285
899 1 3.2 38.4 3.2 -12.0187
870 3 8 36.8 4.8 -11.5964
901 3 6.4 38.4 3.2 -11.51
872 2 11.2 36.8 4.8 -10.0805
903 3 9.6 38.4 3.2 -11.5899
874 3 14.4 36.8 4.8 -11.5437
905 3 12.8 38.4 3.2 -11.5656
876 2 17.6 36.8 4.8 -10.0881
907 3 16 38.4 3.2 -11.5929
878 3 20.8 36.8 4.8 -11.6205
909 3 19.2 38.4 3.2 -11.5704
880 3 24 36.8 4.8 -11.6572
911 3 22.4 38.4 3.2 -11.6491
913 3 25.6 38.4 3.2 -11.6083
882 3 27.2 36.8 4.8 -11.6472
915 2 28.8 38.4 3.2 -10.04
884 2 30.4 36.8 4.8 -10.064
917 1 32 38.4 3.2 -11.9529
886 3 33.6 36.8 4.8 -11.6218
919 3 35.2 38.4 3.2 -11.5866
888 3 36.8 36.8 4.8 -11.6745
921 3 38.4 38.4 3.2 -11.6564
890 3 40 36.8 4.8 -11.5886
923 2 41.6 38.4 3.2 -10.0386
892 1 43.2 36.8 4.8 -11.884
925 3 44.8 38.4 3.2 -11.5572
894 3 46.4 36.8 4.8 -11.4763
927 3 48 38.4 3.2 -11.5993
896 3 49.6 36.8 4.8 -11.5893
898 3 1.6 40 4.8 -11.6453
929 3 0 41.6 3.2 -11.6487
900 3 4.8 40 4.8 -11.6418
931 3 3.2 41.6 3.2 -11.5855
902 3 8 40 4.8 -11.6046
933 2 6.4 41.6 3.2 -10.0836
904 3 11.2 40 4.8 -11.6343
935 3 9.6 41.6 3.2 -11.6558
906 3 14.4 40 4.8 -11.6153
937 3 12.8 41.6 3.2 -11.6225
908 3 17.6 40 4.8 -11.4984
939 3 16 41.6 3.2 -11.5037
910 2 20.8 40 4.8 -10.0394
941 1 19.2 41.6 3.2 -11.9512
912 3 24 40 4.8 -11.6492
943 2 22.4 41.6 3.2 -10.0468
945 3 25.6 41.6 3.2 -11.6399
914 3 27.2 40 4.8 -11.67
947 3 28.8 41.6 3.2 -11.6354
916 3 30.4 40 4.8 -11.6001
949 3 32 41.6 3.2 -11.4533
918 3 33.6 40 4.8 -11.6248
951 2 35.2 41.6 3.2 -10.061
920 3 36.8 40 4.8 -11.67
953 3 38.4 41.6 3.2 -11.5398
922 3 40 40 4.8 -11.5889
955 2 41.6 41.6 3.2 -10.0676
924 3 43.2 40 4.8 -11.5506
957 3 44.8 41.6 3.2 -11.6492
926 2 46.4 40 4.8 -10.0875
959 2 48 41.6 3.2 -10.0628
928 3 49.6 40 4.8 -11.5993
930 2 1.6 43.2 4.8 -10.075
961 3 0 44.8 3.2 -11.6116
932 3 4.8 43.2 4.8 -11.6699
963 3 3.2 44.8 3.2 -11.6744
934 3 8 43.2 4.8 -11.6698
965 3 6.4 44.8 3.2 -11.6404
936 3 11.2 43.2 4.8 -11.6972
967 3 9.6 44.8 3.2 -11.6701
938 3 14.4 43.2 4.8 -11.6144
969 3 12.8 44.8 3.2 -11.6776
940 3 17.6 43.2 4.8 -11.6203
971 3 16 44.8 3.2 -11.6046
942 3 20.8 43.2 4.8 -11.6232
973 3 19.2 44.8 3.2 -11.6214
944 2 24 43.2 4.8 -10.0498
975 3 22.4 44.8 3.2 -11.541
977 2 25.6 44.8 3.2 -10.0778
946 3 27.2 43.2 4.8 -11.6493
979 3 28.8 44.8 3.2 -11.5668
948 3 30.4 43.2 4.8 -11.5676
981 1 32 44.8 3.2 -11.857
950 2 33.6 43.2 4.8 -10.0615
983 2 35.2 44.8 3.2 -10.0075
952 3 36.8 43.2 4.8 -11.6186
985 3 38.4 44.8 3.2 -11.5855
954 2 40 43.2 4.8 -10.0295
987 3 41.6 44.8 3.2 -11.5854
956 3 43.2 43.2 4.8 -11.6703
989 3 44.8 44.8 3.2 -11.5786
958 3 46.4 43.2 4.8 -11.6401
991 2 48 44.8 3.2 -9.9705
960 3 49.6 43.2 4.8 -11.6622
962 2 1.6 46.4 4.8 -10.0476
993 2 0 48 3.2 -10.0685
964 3 4.8 46.4 4.8 -11.5725
995 3 3.2 48 3.2 -11.6212
966 2 8 46.4 4.8 -10.0766
997 3 6.4 48 3.2 -11.6624
968 3 11.2 46.4 4.8 -11.67
999 2 9.6 48 3.2 -10.0477
970 3 14.4 46.4 4.8 -11.603
1001 3 12.8 48 3.2 -11.6339
972 3 17.6 46.4 4.8 -11.6231
1003 3 16 48 3.2 -11.6101
974 3 20.8 46.4 4.8 -11.6489
1005 3 19.2 48 3.2 -11.6437
976 3 24 46.4 4.8 -11.5966
1007 2 22.4 48 3.2 -10.0445
1009 3 25.6 48 3.2 -11.6215
978 2 27.2 46.4 4.8 -10.0639
1011 3 28.8 48 3.2 -11.6537
980 2 30.4 46.4 4.8 -10.0418
1013 3 32 48 3.2 -11.4672
982 2 33.6 46.4 4.8 -9.98103
1015 3 35.2 48 3.2 -11.5771
984 3 36.8 46.4 4.8 -11.6313
1017 2 38.4 48 3.2 -10.0139
986 2 40 46.4 4.8 -10.0617
1019 3 41.6 48 3.2 -11.6243
988 3 43.2 46.4 4.8 -11.6349
1021 3 44.8 48 3.2 -11.6229
990 3 46.4 46.4 4.8 -11.6222
1023 2 48 48 3.2 -10.0093
992 3 49.6 46.4 4.8 -11.5206
994 2 1.6 49.6 4.8 -9.99197
996 3 4.8 49.6 4.8 -11.5219
998 3 8 49.6 4.8 -11.6473
1000 3 11.2 49.6 4.8 -11.6045
1002 1 14.4 49.6 4.8 -11.9301
1004 2 17.6 49.6 4.8 -10.0391
1006 3 20.8 49.6 4.8 -11.5291
1008 2 24 49.6 4.8 -10.0675
1010 2 27.2 49.6 4.8 -10.062
1012 3 30.4 49.6 4.8 -11.4757
1014 3 33.6 49.6 4.8 -11.555
1016 3 36.8 49.6 4.8 -11.5629
1018 3 40 49.6 4.8 -11.5422
1020 3 43.2 49.6 4.8 -11.6975
1022 3 46.4 49.6 4.8 -11.6485
1024 3 49.6 49.6 4.8 -11.6626
1025 3 0 0 6.4 -11.4754
1026 3 1.6 1.6 8 -11.4706
1027 1 3.2 0 6.4 -11.7987
1028 3 4.8 1.6 8 -11.5102
1029 3 6.4 0 6.4 -11.5122
1030 3 8 1.6 8 -11.6777
1031 1 9.6 0 6.4 -12.0497
1032 3 11.2 1.6 8 -11.6689
1033 3 12.8 0 6.4 -11.5297
1034 3 14.4 1.6 8 -11.6003
1035 2 16 0 6.4 -9.99208
1036 3 17.6 1.6 8 -11.6435
1037 3 19.2 0 6.4 -11.6251
1038 3 20.8 1.6 8 -11.6083
1039 3 22.4 0 6.4 -11.6045
1040 3 24 1.6 8 -11.6703
1041 3 25.6 0 6.4 -11.6314
1042 2 27.2 1.6 8 -10.0669
1043 2 28.8 0 6.4 -9.94308
1044 3 30.4 1.6 8 -11.4567
1045 1 32 0 6.4 -11.8617
1046 2 33.6 1.6 8 -10.0552
1047 2 35.2 0 6.4 -9.99759
1048 3 36.8 1.6 8 -11.5991
1049 3 38.4 0 6.4 -11.5543
1050 3 40 1.6 8 -11.6115
1051 3 41.6 0 6.4 -11.6227
1052 2 43.2 1.6 8 -10.0705
1053 3 44.8 0 6.4 -11.6657
1054 2 46.4 1.6 8 -9.93007
1055 3 48 0 6.4 -11.6474
1056 1 49.6 1.6 8 -11.8664
1057 1 0 3.2 6.4 -11.8679
1058 3 1.6 4.8 8 -11.5592
1059 3 3.2 3.2 6.4 -11.3514
1060 2 4.8 4.8 8 -10.0464
1061 3 6.4 3.2 6.4 -11.6094
1062 3 8 4.8 8 -11.6349
1063 3 9.6 3.2 6.4 -11.6167
1064 3 11.2 4.8 8 -11.6906
1065 3 12.8 3.2 6.4 -11.6772
1066 3 14.4 4.8 8 -11.6213
1067 2 16 3.2 6.4 -10.0741
1068 3 17.6 4.8 8 -11.568
1069 3 19.2 3.2 6.4 -11.5104
1070 2 20.8 4.8 8 -10.0131
1071 3 22.4 3.2 6.4 -11.5816
1072 3 24 4.8 8 -11.6449
1073 2 25.6 3.2 6.4 -10.0295
1074 3 27.2 4.8 8 -11.5668
1075 1 28.8 3.2 6.4 -11.9284
1076 3 30.4 4.8 8 -11.6227
1077 3 32 3.2 6.4 -11.4286
1078 3 33.6 4.8 8 -11.6228
1079 3 35.2 3.2 6.4 -11.553
1080 3 36.8 4.8 8 -11.6907
1081 3 38.4 3.2 6.4 -11.6561
1082 3 40 4.8 8 -11.6907
1083 3 41.6 3.2 6.4 -11.6908
1084 3 43.2 4.8 8 -11.6086
1085 3 44.8 3.2 6.4 -11.5771
1086 3 46.4 4.8 8 -11.5441
1087 3 48 3.2 6.4 -11.4603
1088 3 49.6 4.8 8 -11.4302
1089 3 0 6.4 6.4 -11.4292
1090 3 1.6 8 8 -11.5382
1091 2 3.2 6.4 6.4 -10.0183
1092 3 4.8 8 8 -11.6233
1093 3 6.4 6.4 6.4 -11.6218
1094 2 8 8 8 -10.0618
1095 3 9.6 6.4 6.4 -11.683
1096 3 11.2 8 8 -11.5546
1097 3 12.8 6.4 6.4 -11.5919
1098 1 14.4 8 8 -11.938
1099 3 16 6.4 6.4 -11.5577
1100 3 17.6 8 8 -11.4684
1101 1 19.2 6.4 6.4 -11.9996
1102 3 20.8 8 8 -11.5127
1103 3 22.4 6.4 6.4 -11.5566